                         Program Version 6.1.0  -  RELEASE   -
|  1> # avogadro generated ORCA file
|  2> # C7H5N | Frequencies | revPBE/def2-TZVP
|  3> #
|  4> ! Opt Freq revPBE def2-TZVP
|  5>
|  6> %maxcore 16384
|  7>
|  8> %pal
|  9>    nprocs 1
| 10> end
| 11>
| 12> * xyz 0 1
| 13>    C     -3.766730    2.333312   -0.000053
| 14>    C     -3.771509    0.935996   -0.000070
| 15>    C     -2.548013    0.231593   -0.000095
| 16>    H     -0.392042    2.883921   -0.000090
| 17>    C     -2.553414    3.035913   -0.000060
| 18>    C     -2.545225   -1.204036   -0.000112
| 19>    H     -4.710898    0.381596   -0.000065
| 20>    N     -2.542657   -2.373155   -0.000127
| 21>    C     -1.337391    2.338000   -0.000085
| 22>    H     -2.555522    4.127742   -0.000047
| 23>    H     -4.714174    2.875593   -0.000034
| 24>    C     -1.327228    0.940715   -0.000102
| 25>    H     -0.385724    0.389917   -0.000121
| 26> *
| 27>
| 28>
| 29>
| 30>                          ****END OF INPUT****
 Total Charge           Charge          ....    0
 Multiplicity           Mult            ....    1
 Number of Electrons    NEL             ....   54
FINAL SINGLE POINT ENERGY      -324.523040134054
                    ***********************HURRAY********************

CARTESIAN COORDINATES (ANGSTROEM)
---------------------------------
  C     -3.766765    2.333318   -0.000053
  C     -3.771471    0.935987   -0.000070
  C     -2.548006    0.231621   -0.000095
  H     -0.392047    2.884002   -0.000090
  C     -2.553414    3.035850   -0.000060
  C     -2.545211   -1.204044   -0.000112
  H     -4.710840    0.381550   -0.000065
  N     -2.542692   -2.373153   -0.000128
  C     -1.337356    2.338012   -0.000085
  H     -2.555522    4.127701   -0.000047
  H     -4.714170    2.875665   -0.000034
  C     -1.327262    0.940712   -0.000102
  H     -0.385771    0.389886   -0.000121

 Multiplicity           Mult            ....    1
 Number of Electrons    NEL             ....   54
 Basis Dimension        Dim             ....  278

ORBITAL ENERGIES
----------------

  NO   OCC          E(Eh)            E(eV)
   0   2.0000     -13.994249      -380.8029
   1   2.0000      -9.953846      -270.8579
   2   2.0000      -9.932547      -270.2783
   3   2.0000      -9.931164      -270.2407
   4   2.0000      -9.931150      -270.2403
   5   2.0000      -9.927005      -270.1275
   6   2.0000      -9.925605      -270.0894
   7   2.0000      -9.925556      -270.0881
   8   2.0000      -0.828914       -22.5559
   9   2.0000      -0.803486       -21.8640
  10   2.0000      -0.717478       -19.5236
  11   2.0000      -0.703969       -19.1560
  12   2.0000      -0.596557       -16.2331
  13   2.0000      -0.573357       -15.6018
  14   2.0000      -0.514553       -14.0017
  15   2.0000      -0.458134       -12.4665
  16   2.0000      -0.433492       -11.7959
  17   2.0000      -0.412718       -11.2306
  18   2.0000      -0.399713       -10.8767
  19   2.0000      -0.369318       -10.0497
  20   2.0000      -0.342596        -9.3225
  21   2.0000      -0.332930        -9.0595
  22   2.0000      -0.316028        -8.5996
  23   2.0000      -0.310945        -8.4612
  24   2.0000      -0.296359        -8.0643
  25   2.0000      -0.256393        -6.9768
  26   2.0000      -0.246757        -6.7146
  27   0.0000      -0.090121        -2.4523
  28   0.0000      -0.067106        -1.8261
  29   0.0000      -0.009269        -0.2522
  30   0.0000       0.008904         0.2423
  31   0.0000       0.025075         0.6823

MULLIKEN ATOMIC CHARGES
-----------------------
   0 C :   -0.058040
   1 C :   -0.216976
   2 C :    0.350717
   3 H :    0.100026
   4 C :   -0.083622
   5 C :   -0.298329
   6 H :    0.110465
   7 N :    0.060131
   8 C :   -0.058051
   9 H :    0.100155
  10 H :    0.100024
  11 C :   -0.216966
  12 H :    0.110465
Sum of atomic charges:    0.0000000

LOEWDIN ATOMIC CHARGES
----------------------
   0 C :   -0.124761
   1 C :   -0.075387
   2 C :   -0.143141
   3 H :    0.146933
   4 C :   -0.119303
   5 C :   -0.155510
   6 H :    0.153661
   7 N :    0.071371
   8 C :   -0.124761
   9 H :    0.145685
  10 H :    0.146932
  11 C :   -0.075378
  12 H :    0.153662

  Mayer bond orders larger than 0.100000
B(  0-C ,  1-C ) :   1.4331 B(  0-C ,  4-C ) :   1.3962 B(  0-C , 10-H ) :   0.9646
B(  1-C ,  2-C ) :   1.3354 B(  1-C ,  6-H ) :   0.9740 B(  2-C ,  5-C ) :   0.9135
B(  2-C , 11-C ) :   1.3354 B(  3-H ,  8-C ) :   0.9646 B(  4-C ,  8-C ) :   1.3962
B(  4-C ,  9-H ) :   0.9620 B(  5-C ,  7-N ) :   3.1190 B(  8-C , 11-C ) :   1.4331
B( 11-C , 12-H ) :   0.9740

FINAL SINGLE POINT ENERGY      -324.523040175108

DIPOLE MOMENT
-------------

Method             : SCF
Type of density    : Electron Density
Multiplicity       :   1
Irrep              :   0
Energy             :  -324.5230401751084059 Eh
Basis              : AO
                                X                 Y                 Z
Electronic contribution:      0.008711777      -4.491298084      -0.000054728
Nuclear contribution   :     -0.012353754       6.300871585       0.000077497
                        -----------------------------------------
Total Dipole Moment    :     -0.003641977       1.809573501       0.000022770
                        -----------------------------------------
Magnitude (a.u.)       :      1.809577166
Magnitude (Debye)      :      4.599579622

VIBRATIONAL FREQUENCIES
-----------------------

Scaling factor for frequencies =  1.000000000  (already applied!)

     0:       0.00 cm**-1
     1:       0.00 cm**-1
     2:       0.00 cm**-1
     3:       0.00 cm**-1
     4:       0.00 cm**-1
     5:       0.00 cm**-1
     6:     138.82 cm**-1
     7:     161.00 cm**-1
     8:     373.50 cm**-1
     9:     389.22 cm**-1
    10:     450.19 cm**-1
    11:     549.11 cm**-1
    12:     549.23 cm**-1
    13:     616.22 cm**-1
    14:     677.42 cm**-1
    15:     747.13 cm**-1
    16:     749.65 cm**-1
    17:     822.05 cm**-1
    18:     901.74 cm**-1
    19:     921.24 cm**-1
    20:     943.74 cm**-1
    21:     985.12 cm**-1
    22:    1020.10 cm**-1
    23:    1073.57 cm**-1
    24:    1154.62 cm**-1
    25:    1166.34 cm**-1
    26:    1185.00 cm**-1
    27:    1296.10 cm**-1
    28:    1326.85 cm**-1
    29:    1429.98 cm**-1
    30:    1473.66 cm**-1
    31:    1560.89 cm**-1
    32:    1587.01 cm**-1
    33:    2229.67 cm**-1
    34:    3100.67 cm**-1
    35:    3110.75 cm**-1
    36:    3119.74 cm**-1
    37:    3129.12 cm**-1
    38:    3131.80 cm**-1

IR SPECTRUM
-----------

 Mode   freq       eps      Int      T**2         TX        TY        TZ
       cm**-1   L/(mol*cm) km/mol    a.u.
----------------------------------------------------------------------------
  6:    138.82   0.000329    1.66  0.000739  ( 0.000009 -0.000002  0.027176)
  7:    161.00   0.000779    3.94  0.001510  (-0.038855 -0.000085 -0.000000)
  8:    373.50   0.000077    0.39  0.000065  ( 0.000002  0.000000 -0.008039)
  9:    389.22   0.000000    0.00  0.000000  ( 0.000002 -0.000002 -0.000014)
 10:    450.19   0.000001    0.00  0.000000  ( 0.000001 -0.000602 -0.000000)
 11:    549.11   0.003046   15.39  0.001731  ( 0.000001 -0.000001 -0.041604)
 12:    549.23   0.000017    0.09  0.000010  ( 0.003106  0.000024 -0.000008)
 13:    616.22   0.000023    0.12  0.000012  (-0.003397 -0.000015  0.000000)
 14:    677.42   0.006422   32.46  0.002958  ( 0.000002  0.000000  0.054392)
 15:    747.13   0.007510   37.95  0.003137  (-0.000003 -0.000002  0.056006)
 16:    749.65   0.000332    1.68  0.000138  ( 0.000023 -0.011749 -0.000019)
 17:    822.05   0.000000    0.00  0.000000  (-0.000004  0.000001 -0.000001)
 18:    901.74   0.000588    2.97  0.000203  (-0.000002  0.000004 -0.014259)
 19:    921.24   0.000000    0.00  0.000000  (-0.000001  0.000002  0.000010)
 20:    943.74   0.000027    0.14  0.000009  ( 0.000005  0.000003  0.002992)
 21:    985.12   0.000057    0.29  0.000018  ( 0.000009 -0.004236 -0.000000)
 22:   1020.10   0.000657    3.32  0.000201  (-0.000028  0.014177  0.000000)
 23:   1073.57   0.000815    4.12  0.000237  ( 0.015389  0.000033 -0.000000)
 24:   1154.62   0.000010    0.05  0.000003  (-0.001616 -0.000009  0.000000)
 25:   1166.34   0.000168    0.85  0.000045  (-0.000012  0.006705  0.000000)
 26:   1185.00   0.000070    0.36  0.000019  ( 0.000008 -0.004305 -0.000000)
 27:   1296.10   0.000022    0.11  0.000005  ( 0.002279  0.000003 -0.000000)
 28:   1326.85   0.000239    1.21  0.000056  (-0.007504 -0.000013  0.000000)
 29:   1429.98   0.001198    6.06  0.000262  (-0.016172 -0.000038  0.000000)
 30:   1473.66   0.001411    7.13  0.000299  (-0.000030  0.017285  0.000000)
 31:   1560.89   0.000218    1.10  0.000044  (-0.006604 -0.000010  0.000000)
 32:   1587.01   0.000144    0.73  0.000028  ( 0.000010 -0.005322 -0.000000)
 33:   2229.67   0.004327   21.87  0.000606  (-0.000044  0.024608  0.000000)
 34:   3100.67   0.000003    0.01  0.000000  ( 0.000001  0.000529  0.000000)
 35:   3110.75   0.000922    4.66  0.000092  (-0.009615 -0.000017  0.000000)
 36:   3119.74   0.002146   10.85  0.000215  ( 0.000027 -0.014653 -0.000000)
 37:   3129.12   0.001763    8.91  0.000176  ( 0.013259  0.000027 -0.000000)
 38:   3131.80   0.000534    2.70  0.000053  (-0.000016  0.007293  0.000000)

--------------------------
THERMOCHEMISTRY AT 298.15K
--------------------------

Temperature         ...   298.15 K
Pressure            ...     1.00 atm
Total Mass          ...   103.12 AMU
Quasi RRHO          ...     True
Cut-Off Frequency   ...     1.00 cm^-1

Throughout the following assumptions are being made:
  (1) The electronic state is orbitally nondegenerate
  (2) There are no thermally accessible electronically excited states
  (3) Hindered rotations indicated by low frequency modes are not
      treated as such but are treated as vibrations and this may
      cause some error
  (4) All equations used are the standard statistical mechanics
      equations for an ideal gas
  (5) All vibrations are strictly harmonic

freq.     138.82  E(vib)   ...       0.42
freq.     161.00  E(vib)   ...       0.39
freq.     373.50  E(vib)   ...       0.21
freq.     389.22  E(vib)   ...       0.20
freq.     450.19  E(vib)   ...       0.17
freq.     549.11  E(vib)   ...       0.12
freq.     549.23  E(vib)   ...       0.12
freq.     616.22  E(vib)   ...       0.09
freq.     677.42  E(vib)   ...       0.08
freq.     747.13  E(vib)   ...       0.06
freq.     749.65  E(vib)   ...       0.06
freq.     822.05  E(vib)   ...       0.05
freq.     901.74  E(vib)   ...       0.03
freq.     921.24  E(vib)   ...       0.03
freq.     943.74  E(vib)   ...       0.03
freq.     985.12  E(vib)   ...       0.02
freq.    1020.10  E(vib)   ...       0.02
freq.    1073.57  E(vib)   ...       0.02
freq.    1154.62  E(vib)   ...       0.01
freq.    1166.34  E(vib)   ...       0.01
freq.    1185.00  E(vib)   ...       0.01
freq.    1296.10  E(vib)   ...       0.01
freq.    1326.85  E(vib)   ...       0.01
freq.    1429.98  E(vib)   ...       0.00
freq.    1473.66  E(vib)   ...       0.00
freq.    1560.89  E(vib)   ...       0.00
freq.    1587.01  E(vib)   ...       0.00
freq.    2229.67  E(vib)   ...       0.00
freq.    3100.67  E(vib)   ...       0.00
freq.    3110.75  E(vib)   ...       0.00
freq.    3119.74  E(vib)   ...       0.00
freq.    3129.12  E(vib)   ...       0.00
freq.    3131.80  E(vib)   ...       0.00

------------
INNER ENERGY
------------

The inner energy is: U= E(el) + E(ZPE) + E(vib) + E(rot) + E(trans)
    E(el)   - is the total energy from the electronic structure calculation
              = E(kin-el) + E(nuc-el) + E(el-el) + E(nuc-nuc)
    E(ZPE)  - the the zero temperature vibrational energy from the frequency calculation
    E(vib)  - the the finite temperature correction to E(ZPE) due to population
              of excited vibrational states
    E(rot)  - is the rotational thermal energy
    E(trans)- is the translational thermal energy

Summary of contributions to the inner energy U:
Electronic energy                ...   -324.52304018 Eh
Zero point energy                ...      0.09584543 Eh      60.14 kcal/mol
Thermal vibrational correction   ...      0.00347054 Eh       2.18 kcal/mol
Thermal rotational correction    ...      0.00141627 Eh       0.89 kcal/mol
Thermal translational correction ...      0.00141627 Eh       0.89 kcal/mol
-----------------------------------------------------------------------
Total thermal energy                   -324.42089166 Eh

Summary of corrections to the electronic energy:
(perhaps to be used in another calculation)
Total thermal correction                  0.00630308 Eh       3.96 kcal/mol
Non-thermal (ZPE) correction              0.09584543 Eh      60.14 kcal/mol
-----------------------------------------------------------------------
Total correction                          0.10214851 Eh      64.10 kcal/mol

--------
ENTHALPY
--------

The enthalpy is H = U + kB*T
                kB is Boltzmann's constant
Total thermal energy              ...   -324.42089166 Eh
Thermal Enthalpy correction       ...      0.00094421 Eh       0.59 kcal/mol
-----------------------------------------------------------------------
Total Enthalpy                    ...   -324.41994745 Eh

Note: Rotational entropy computed according to Herzberg
Infrared and Raman Spectra, Chapter V,1, Van Nostrand Reinhold, 1945
Point Group:  Cs, Symmetry Number:   1
Rotational constants in cm-1:     0.186963     0.051004     0.040072

Vibrational entropy computed according to the QRRHO of S. Grimme
Chem.Eur.J. 2012 18 9955 using a reference frequency of 100.0 cm-1

-------
ENTROPY
-------

The entropy contributions are T*S = T*(S(el)+S(vib)+S(rot)+S(trans))
     S(el)   - electronic entropy
     S(vib)  - vibrational entropy
     S(rot)  - rotational entropy
     S(trans)- translational entropy
The entropies will be listed as multiplied by the temperature to get
units of energy

Electronic entropy                ...      0.00000000 Eh      0.00 kcal/mol
Vibrational entropy               ...      0.00549936 Eh      3.45 kcal/mol
Rotational entropy                ...      0.01322605 Eh      8.30 kcal/mol
Translational entropy             ...      0.01891481 Eh     11.87 kcal/mol
-----------------------------------------------------------------------
Final entropy term                ...      0.03764021 Eh     23.62 kcal/mol

In case the symmetry of your molecule has not been determined correctly
or in case you have a reason to use a different symmetry number we print
out the resulting rotational entropy values for sn=1,12:

 non-linear molecules -----------------------------------
|  sn= 1 | S(rot)=       0.01322605 Eh      8.30 kcal/mol|
|  sn= 2 | S(rot)=       0.01257159 Eh      7.89 kcal/mol|
|  sn= 3 | S(rot)=       0.01218876 Eh      7.65 kcal/mol|
|  sn= 4 | S(rot)=       0.01191713 Eh      7.48 kcal/mol|
|  sn= 5 | S(rot)=       0.01170645 Eh      7.35 kcal/mol|
|  sn= 6 | S(rot)=       0.01153430 Eh      7.24 kcal/mol|
|  sn= 7 | S(rot)=       0.01138876 Eh      7.15 kcal/mol|
|  sn= 8 | S(rot)=       0.01126268 Eh      7.07 kcal/mol|
|  sn= 9 | S(rot)=       0.01115147 Eh      7.00 kcal/mol|
|  sn=10 | S(rot)=       0.01105199 Eh      6.94 kcal/mol|
|  sn=11 | S(rot)=       0.01096200 Eh      6.88 kcal/mol|
|  sn=12 | S(rot)=       0.01087985 Eh      6.83 kcal/mol|
 linear molecules ---------------------------------------
|  Dinfh | S(rot)=       0.00836330 Eh      5.25 kcal/mol|
|  Cinfv | S(rot)=       0.00901776 Eh      5.66 kcal/mol|
 --------------------------------------------------------

-------------------
GIBBS FREE ENERGY
-------------------

The Gibbs free energy is G = H - T*S

Total enthalpy                    ...   -324.41994745 Eh
Total entropy correction          ...     -0.03764021 Eh    -23.62 kcal/mol
-----------------------------------------------------------------------
Final Gibbs free energy         ...   -324.45758766 Eh

For completeness - the Gibbs free energy minus the electronic energy
G-E(el)                           ...      0.06545251 Eh     41.07 kcal/mol

                             ****ORCA TERMINATED NORMALLY****
TOTAL RUN TIME: 0 days 0 hours 2 minutes 49 seconds 50 msec
