                         Program Version 6.1.0  -  RELEASE   -
|  1> # avogadro generated ORCA file
|  2> # C7H14 | Frequencies | revPBE/def2-TZVP
|  3> #
|  4> ! Opt Freq revPBE def2-TZVP
|  5>
|  6> %maxcore 16384
|  7>
|  8> %pal
|  9>    nprocs 1
| 10> end
| 11>
| 12> * xyz 0 1
| 13>    C     -3.150658    3.072574   -0.228097
| 14>    C     -3.263926    1.547273   -0.150035
| 15>    H     -3.479139    1.162614   -1.155751
| 16>    H     -0.741851    1.066066   -1.326226
| 17>    C     -1.852075    3.616550    0.353766
| 18>    C     -2.011561    0.864544    0.414066
| 19>    H     -3.230261    3.381006   -1.278060
| 20>    H     -4.002570    3.531226    0.287630
| 21>    C     -0.632541    2.919431   -0.240391
| 22>    H     -1.785685    4.695373    0.171853
| 23>    H     -1.855374    3.486002    1.443061
| 24>    C     -0.750815    1.393152   -0.278059
| 25>    H     -0.467272    3.285330   -1.261471
| 26>    H      0.258468    3.206434    0.330630
| 27>    C     -2.113546   -0.653653    0.277373
| 28>    H     -4.132233    1.279275    0.464881
| 29>    H      0.140895    0.950317    0.182865
| 30>    H     -1.942435    1.092350    1.486027
| 31>    H     -1.237930   -1.142491    0.716997
| 32>    H     -3.002248   -1.030999    0.793825
| 33>    H     -2.178154   -0.957188   -0.772849
| 34> *
| 35>
| 36>
| 37>
| 38>                          ****END OF INPUT****
 Total Charge           Charge          ....    0
 Multiplicity           Mult            ....    1
 Number of Electrons    NEL             ....   56
FINAL SINGLE POINT ENERGY      -275.179824493848
FINAL SINGLE POINT ENERGY      -275.182092402176
FINAL SINGLE POINT ENERGY      -275.182258701276
FINAL SINGLE POINT ENERGY      -275.182301728805
FINAL SINGLE POINT ENERGY      -275.182341019012
FINAL SINGLE POINT ENERGY      -275.182441820088
FINAL SINGLE POINT ENERGY      -275.182571420665
FINAL SINGLE POINT ENERGY      -275.182809751678
FINAL SINGLE POINT ENERGY      -275.183104679875
FINAL SINGLE POINT ENERGY      -275.183328701801
FINAL SINGLE POINT ENERGY      -275.183403059988
FINAL SINGLE POINT ENERGY      -275.183415229134
FINAL SINGLE POINT ENERGY      -275.183420088203
FINAL SINGLE POINT ENERGY      -275.183420995758
                    ***********************HURRAY********************

CARTESIAN COORDINATES (ANGSTROEM)
---------------------------------
  C     -3.114105    3.030511   -0.390380
  C     -3.304901    1.547383    0.024760
  H     -3.785438    0.997086   -0.802655
  H     -1.029008    1.322058   -1.481303
  C     -1.905762    3.661276    0.321898
  C     -1.973098    0.839059    0.404660
  H     -2.958913    3.097675   -1.481088
  H     -4.031754    3.602483   -0.179308
  C     -0.588135    2.941360   -0.070253
  H     -1.834222    4.735290    0.087144
  H     -2.059519    3.597933    1.412874
  C     -0.808132    1.442216   -0.405624
  H     -0.132435    3.443795   -0.939325
  H      0.138252    3.036066    0.753541
  C     -2.077005   -0.686309    0.244971
  H     -4.000743    1.482362    0.878184
  H      0.119726    0.875983   -0.222390
  H     -1.769554    1.045286    1.472161
  H     -1.164441   -1.190808    0.599759
  H     -2.927528   -1.091346    0.816199
  H     -2.224195   -0.964173   -0.811788

 Multiplicity           Mult            ....    1
 Number of Electrons    NEL             ....   56
 Basis Dimension        Dim             ....  301

ORBITAL ENERGIES
----------------

  NO   OCC          E(Eh)            E(eV)
   0   2.0000      -9.892942      -269.2006
   1   2.0000      -9.884930      -268.9826
   2   2.0000      -9.884635      -268.9746
   3   2.0000      -9.884490      -268.9706
   4   2.0000      -9.883648      -268.9477
   5   2.0000      -9.883132      -268.9337
   6   2.0000      -9.878110      -268.7970
   7   2.0000      -0.750696       -20.4275
   8   2.0000      -0.684156       -18.6168
   9   2.0000      -0.660585       -17.9754
  10   2.0000      -0.602868       -16.4049
  11   2.0000      -0.544878       -14.8269
  12   2.0000      -0.527559       -14.3556
  13   2.0000      -0.463542       -12.6136
  14   2.0000      -0.428993       -11.6735
  15   2.0000      -0.410666       -11.1748
  16   2.0000      -0.387459       -10.5433
  17   2.0000      -0.363500        -9.8913
  18   2.0000      -0.356138        -9.6910
  19   2.0000      -0.332488        -9.0475
  20   2.0000      -0.322937        -8.7876
  21   2.0000      -0.315338        -8.5808
  22   2.0000      -0.306916        -8.3516
  23   2.0000      -0.297454        -8.0941
  24   2.0000      -0.294102        -8.0029
  25   2.0000      -0.257629        -7.0104
  26   2.0000      -0.252665        -6.8754
  27   2.0000      -0.250970        -6.8292
  28   0.0000       0.012705         0.3457
  29   0.0000       0.034003         0.9253
  30   0.0000       0.038452         1.0463
  31   0.0000       0.050506         1.3743
  32   0.0000       0.069371         1.8877

MULLIKEN ATOMIC CHARGES
-----------------------
   0 C :   -0.090197
   1 C :   -0.219313
   2 H :    0.067941
   3 H :    0.054981
   4 C :   -0.124965
   5 C :    0.048520
   6 H :    0.055685
   7 H :    0.078827
   8 C :   -0.168889
   9 H :    0.080251
  10 H :    0.060607
  11 C :   -0.142654
  12 H :    0.072338
  13 H :    0.072084
  14 C :   -0.312172
  15 H :    0.071716
  16 H :    0.076583
  17 H :    0.030125
  18 H :    0.096923
  19 H :    0.101208
  20 H :    0.090399
Sum of atomic charges:   -0.0000000

LOEWDIN ATOMIC CHARGES
----------------------
   0 C :   -0.259602
   1 C :   -0.236222
   2 H :    0.134154
   3 H :    0.134056
   4 C :   -0.262750
   5 C :   -0.278263
   6 H :    0.132820
   7 H :    0.130399
   8 C :   -0.257217
   9 H :    0.130215
  10 H :    0.132068
  11 C :   -0.238414
  12 H :    0.130624
  13 H :    0.130511
  14 C :   -0.290023
  15 H :    0.131755
  16 H :    0.132434
  17 H :    0.148233
  18 H :    0.117599
  19 H :    0.119542
  20 H :    0.118083

  Mayer bond orders larger than 0.100000
B(  0-C ,  1-C ) :   1.0539 B(  0-C ,  4-C ) :   1.0759 B(  0-C ,  6-H ) :   0.9336
B(  0-C ,  7-H ) :   0.9417 B(  1-C ,  2-H ) :   0.9456 B(  1-C ,  5-C ) :   1.0341
B(  1-C , 15-H ) :   0.9491 B(  3-H , 11-C ) :   0.9272 B(  4-C ,  8-C ) :   1.0618
B(  4-C ,  9-H ) :   0.9408 B(  4-C , 10-H ) :   0.9362 B(  5-C , 11-C ) :   1.0548
B(  5-C , 14-C ) :   0.9673 B(  5-C , 17-H ) :   0.9323 B(  8-C , 11-C ) :   1.0560
B(  8-C , 12-H ) :   0.9487 B(  8-C , 13-H ) :   0.9510 B( 11-C , 16-H ) :   0.9439
B( 14-C , 18-H ) :   0.9699 B( 14-C , 19-H ) :   0.9700 B( 14-C , 20-H ) :   0.9677

FINAL SINGLE POINT ENERGY      -275.183421204021

DIPOLE MOMENT
-------------

Method             : SCF
Type of density    : Electron Density
Multiplicity       :   1
Irrep              :   0
Energy             :  -275.1834212040207603 Eh
Basis              : AO
                                X                 Y                 Z
Electronic contribution:      0.099299354       1.295331807       0.156301791
Nuclear contribution   :     -0.094390742      -1.254254513      -0.126972806
                        -----------------------------------------
Total Dipole Moment    :      0.004908612       0.041077293       0.029328985
                        -----------------------------------------
Magnitude (a.u.)       :      0.050711220
Magnitude (Debye)      :      0.128897678

VIBRATIONAL FREQUENCIES
-----------------------

Scaling factor for frequencies =  1.000000000  (already applied!)

     0:       0.00 cm**-1
     1:       0.00 cm**-1
     2:       0.00 cm**-1
     3:       0.00 cm**-1
     4:       0.00 cm**-1
     5:       0.00 cm**-1
     6:      92.22 cm**-1
     7:     169.30 cm**-1
     8:     231.30 cm**-1
     9:     245.94 cm**-1
    10:     295.40 cm**-1
    11:     388.36 cm**-1
    12:     404.72 cm**-1
    13:     462.21 cm**-1
    14:     550.44 cm**-1
    15:     735.14 cm**-1
    16:     757.06 cm**-1
    17:     823.84 cm**-1
    18:     834.57 cm**-1
    19:     854.44 cm**-1
    20:     882.57 cm**-1
    21:     927.01 cm**-1
    22:     952.21 cm**-1
    23:     968.03 cm**-1
    24:    1019.45 cm**-1
    25:    1065.19 cm**-1
    26:    1069.43 cm**-1
    27:    1085.35 cm**-1
    28:    1093.45 cm**-1
    29:    1136.53 cm**-1
    30:    1184.01 cm**-1
    31:    1220.90 cm**-1
    32:    1245.50 cm**-1
    33:    1263.60 cm**-1
    34:    1283.05 cm**-1
    35:    1290.18 cm**-1
    36:    1313.00 cm**-1
    37:    1319.80 cm**-1
    38:    1328.91 cm**-1
    39:    1331.02 cm**-1
    40:    1343.08 cm**-1
    41:    1361.18 cm**-1
    42:    1437.40 cm**-1
    43:    1440.47 cm**-1
    44:    1447.25 cm**-1
    45:    1450.46 cm**-1
    46:    1452.92 cm**-1
    47:    1454.75 cm**-1
    48:    1466.74 cm**-1
    49:    2919.14 cm**-1
    50:    2942.26 cm**-1
    51:    2943.92 cm**-1
    52:    2948.21 cm**-1
    53:    2950.78 cm**-1
    54:    2955.69 cm**-1
    55:    2959.42 cm**-1
    56:    2977.27 cm**-1
    57:    2979.54 cm**-1
    58:    2991.24 cm**-1
    59:    2998.36 cm**-1
    60:    3005.95 cm**-1
    61:    3016.31 cm**-1
    62:    3021.22 cm**-1

IR SPECTRUM
-----------

 Mode   freq       eps      Int      T**2         TX        TY        TZ
       cm**-1   L/(mol*cm) km/mol    a.u.
----------------------------------------------------------------------------
  6:     92.22   0.000005    0.03  0.000018  (-0.000130  0.001602  0.003950)
  7:    169.30   0.000002    0.01  0.000004  (-0.000574 -0.001417  0.001428)
  8:    231.30   0.000001    0.01  0.000002  (-0.000414 -0.000590  0.001223)
  9:    245.94   0.000002    0.01  0.000003  (-0.000915  0.001302  0.000160)
 10:    295.40   0.000002    0.01  0.000002  ( 0.000477 -0.000624 -0.001169)
 11:    388.36   0.000060    0.30  0.000048  (-0.001085 -0.002273 -0.006478)
 12:    404.72   0.000007    0.04  0.000006  (-0.002081  0.000735 -0.000809)
 13:    462.21   0.000006    0.03  0.000004  ( 0.000126  0.001877 -0.000809)
 14:    550.44   0.000105    0.53  0.000060  ( 0.005410  0.002799 -0.004738)
 15:    735.14   0.000194    0.98  0.000082  ( 0.005517 -0.007134  0.000962)
 16:    757.06   0.000320    1.62  0.000132  (-0.000255 -0.003220  0.011015)
 17:    823.84   0.000090    0.45  0.000034  (-0.003344 -0.002879  0.003799)
 18:    834.57   0.000248    1.25  0.000093  ( 0.001892 -0.009370  0.001127)
 19:    854.44   0.000086    0.43  0.000031  (-0.005127  0.000329 -0.002241)
 20:    882.57   0.000017    0.08  0.000006  (-0.001916 -0.000368  0.001456)
 21:    927.01   0.000076    0.39  0.000026  (-0.004276  0.001088  0.002498)
 22:    952.21   0.000296    1.50  0.000097  ( 0.009396 -0.000933 -0.002810)
 23:    968.03   0.000145    0.73  0.000047  ( 0.003492 -0.000651  0.005850)
 24:   1019.45   0.000101    0.51  0.000031  (-0.004247 -0.001861 -0.003068)
 25:   1065.19   0.000011    0.06  0.000003  (-0.001110 -0.000106  0.001457)
 26:   1069.43   0.000189    0.95  0.000055  ( 0.004334 -0.005919 -0.001147)
 27:   1085.35   0.000026    0.13  0.000008  (-0.002327 -0.001371  0.000490)
 28:   1093.45   0.000123    0.62  0.000035  (-0.005779 -0.000208  0.001252)
 29:   1136.53   0.000255    1.29  0.000070  ( 0.001560 -0.008184  0.000772)
 30:   1184.01   0.000034    0.17  0.000009  ( 0.001838 -0.002321  0.000508)
 31:   1220.90   0.000083    0.42  0.000021  (-0.000966 -0.002590  0.003691)
 32:   1245.50   0.000024    0.12  0.000006  (-0.001460  0.000039  0.001983)
 33:   1263.60   0.000306    1.54  0.000075  (-0.007707 -0.002984 -0.002676)
 34:   1283.05   0.000220    1.11  0.000053  (-0.003373 -0.004158 -0.004982)
 35:   1290.18   0.000028    0.14  0.000007  ( 0.000821 -0.002170  0.001176)
 36:   1313.00   0.000313    1.58  0.000074  (-0.002693  0.008192  0.000277)
 37:   1319.80   0.000119    0.60  0.000028  (-0.003689 -0.003760  0.000561)
 38:   1328.91   0.000324    1.64  0.000076  ( 0.008035 -0.003205 -0.001108)
 39:   1331.02   0.000161    0.81  0.000038  ( 0.004284  0.004250 -0.001158)
 40:   1343.08   0.000041    0.21  0.000010  ( 0.000067  0.002997 -0.000764)
 41:   1361.18   0.000515    2.60  0.000118  (-0.001273 -0.009760 -0.004611)
 42:   1437.40   0.000041    0.21  0.000009  (-0.001852  0.001530 -0.001770)
 43:   1440.47   0.000314    1.59  0.000068  (-0.001602 -0.006731  0.004499)
 44:   1447.25   0.000470    2.38  0.000101  (-0.007345  0.003177  0.006114)
 45:   1450.46   0.000374    1.89  0.000081  (-0.006638 -0.005154  0.003151)
 46:   1452.92   0.001546    7.81  0.000332  (-0.013430  0.000916 -0.012282)
 47:   1454.75   0.001634    8.26  0.000351  (-0.001730  0.005758  0.017730)
 48:   1466.74   0.000396    2.00  0.000084  ( 0.001008  0.003198 -0.008539)
 49:   2919.14   0.001065    5.38  0.000114  (-0.006239  0.001107 -0.008586)
 50:   2942.26   0.003769   19.04  0.000400  ( 0.000406  0.016896  0.010681)
 51:   2943.92   0.003639   18.39  0.000386  (-0.013125 -0.006686  0.012991)
 52:   2948.21   0.005355   27.06  0.000567  (-0.019061  0.012199  0.007396)
 53:   2950.78   0.008718   44.06  0.000922  (-0.009338 -0.028007  0.007100)
 54:   2955.69   0.009497   47.99  0.001003  ( 0.012384  0.018473  0.022540)
 55:   2959.42   0.007766   39.25  0.000819  ( 0.025331  0.012121  0.005508)
 56:   2977.27   0.005139   25.97  0.000539  ( 0.004711 -0.013678 -0.018149)
 57:   2979.54   0.005668   28.65  0.000594  (-0.019444  0.012649 -0.007456)
 58:   2991.24   0.006452   32.60  0.000673  ( 0.023175  0.011649  0.000547)
 59:   2998.36   0.010856   54.86  0.001130  ( 0.020938 -0.024649 -0.009156)
 60:   3005.95   0.014379   72.66  0.001493  (-0.001634 -0.012344  0.036575)
 61:   3016.31   0.013656   69.01  0.001413  (-0.004061 -0.006337  0.036826)
 62:   3021.22   0.008130   41.09  0.000840  (-0.027385  0.003919 -0.008631)

--------------------------
THERMOCHEMISTRY AT 298.15K
--------------------------

Temperature         ...   298.15 K
Pressure            ...     1.00 atm
Total Mass          ...    98.19 AMU
Quasi RRHO          ...     True
Cut-Off Frequency   ...     1.00 cm^-1

Throughout the following assumptions are being made:
  (1) The electronic state is orbitally nondegenerate
  (2) There are no thermally accessible electronically excited states
  (3) Hindered rotations indicated by low frequency modes are not
      treated as such but are treated as vibrations and this may
      cause some error
  (4) All equations used are the standard statistical mechanics
      equations for an ideal gas
  (5) All vibrations are strictly harmonic

freq.      92.22  E(vib)   ...       0.47
freq.     169.30  E(vib)   ...       0.38
freq.     231.30  E(vib)   ...       0.32
freq.     245.94  E(vib)   ...       0.31
freq.     295.40  E(vib)   ...       0.27
freq.     388.36  E(vib)   ...       0.20
freq.     404.72  E(vib)   ...       0.19
freq.     462.21  E(vib)   ...       0.16
freq.     550.44  E(vib)   ...       0.12
freq.     735.14  E(vib)   ...       0.06
freq.     757.06  E(vib)   ...       0.06
freq.     823.84  E(vib)   ...       0.05
freq.     834.57  E(vib)   ...       0.04
freq.     854.44  E(vib)   ...       0.04
freq.     882.57  E(vib)   ...       0.04
freq.     927.01  E(vib)   ...       0.03
freq.     952.21  E(vib)   ...       0.03
freq.     968.03  E(vib)   ...       0.03
freq.    1019.45  E(vib)   ...       0.02
freq.    1065.19  E(vib)   ...       0.02
freq.    1069.43  E(vib)   ...       0.02
freq.    1085.35  E(vib)   ...       0.02
freq.    1093.45  E(vib)   ...       0.02
freq.    1136.53  E(vib)   ...       0.01
freq.    1184.01  E(vib)   ...       0.01
freq.    1220.90  E(vib)   ...       0.01
freq.    1245.50  E(vib)   ...       0.01
freq.    1263.60  E(vib)   ...       0.01
freq.    1283.05  E(vib)   ...       0.01
freq.    1290.18  E(vib)   ...       0.01
freq.    1313.00  E(vib)   ...       0.01
freq.    1319.80  E(vib)   ...       0.01
freq.    1328.91  E(vib)   ...       0.01
freq.    1331.02  E(vib)   ...       0.01
freq.    1343.08  E(vib)   ...       0.01
freq.    1361.18  E(vib)   ...       0.01
freq.    1437.40  E(vib)   ...       0.00
freq.    1440.47  E(vib)   ...       0.00
freq.    1447.25  E(vib)   ...       0.00
freq.    1450.46  E(vib)   ...       0.00
freq.    1452.92  E(vib)   ...       0.00
freq.    1454.75  E(vib)   ...       0.00
freq.    1466.74  E(vib)   ...       0.00
freq.    2919.14  E(vib)   ...       0.00
freq.    2942.26  E(vib)   ...       0.00
freq.    2943.92  E(vib)   ...       0.00
freq.    2948.21  E(vib)   ...       0.00
freq.    2950.78  E(vib)   ...       0.00
freq.    2955.69  E(vib)   ...       0.00
freq.    2959.42  E(vib)   ...       0.00
freq.    2977.27  E(vib)   ...       0.00
freq.    2979.54  E(vib)   ...       0.00
freq.    2991.24  E(vib)   ...       0.00
freq.    2998.36  E(vib)   ...       0.00
freq.    3005.95  E(vib)   ...       0.00
freq.    3016.31  E(vib)   ...       0.00
freq.    3021.22  E(vib)   ...       0.00

------------
INNER ENERGY
------------

The inner energy is: U= E(el) + E(ZPE) + E(vib) + E(rot) + E(trans)
    E(el)   - is the total energy from the electronic structure calculation
              = E(kin-el) + E(nuc-el) + E(el-el) + E(nuc-nuc)
    E(ZPE)  - the the zero temperature vibrational energy from the frequency calculation
    E(vib)  - the the finite temperature correction to E(ZPE) due to population
              of excited vibrational states
    E(rot)  - is the rotational thermal energy
    E(trans)- is the translational thermal energy

Summary of contributions to the inner energy U:
Electronic energy                ...   -275.18342120 Eh
Zero point energy                ...      0.19202151 Eh     120.50 kcal/mol
Thermal vibrational correction   ...      0.00479829 Eh       3.01 kcal/mol
Thermal rotational correction    ...      0.00141627 Eh       0.89 kcal/mol
Thermal translational correction ...      0.00141627 Eh       0.89 kcal/mol
-----------------------------------------------------------------------
Total thermal energy                   -274.98376886 Eh

Summary of corrections to the electronic energy:
(perhaps to be used in another calculation)
Total thermal correction                  0.00763083 Eh       4.79 kcal/mol
Non-thermal (ZPE) correction              0.19202151 Eh     120.50 kcal/mol
-----------------------------------------------------------------------
Total correction                          0.19965234 Eh     125.28 kcal/mol

--------
ENTHALPY
--------

The enthalpy is H = U + kB*T
                kB is Boltzmann's constant
Total thermal energy              ...   -274.98376886 Eh
Thermal Enthalpy correction       ...      0.00094421 Eh       0.59 kcal/mol
-----------------------------------------------------------------------
Total Enthalpy                    ...   -274.98282465 Eh

Note: Only C1 symmetry has been detected, increase convergence thresholds
      if your molecule has a higher symmetry. Symmetry factor of 1.0 is
      used for the rotational entropy correction.

Note: Rotational entropy computed according to Herzberg
Infrared and Raman Spectra, Chapter V,1, Van Nostrand Reinhold, 1945
Point Group:  C1, Symmetry Number:   1
Rotational constants in cm-1:     0.135994     0.072241     0.053233

Vibrational entropy computed according to the QRRHO of S. Grimme
Chem.Eur.J. 2012 18 9955 using a reference frequency of 100.0 cm-1

-------
ENTROPY
-------

The entropy contributions are T*S = T*(S(el)+S(vib)+S(rot)+S(trans))
     S(el)   - electronic entropy
     S(vib)  - vibrational entropy
     S(rot)  - rotational entropy
     S(trans)- translational entropy
The entropies will be listed as multiplied by the temperature to get
units of energy

Electronic entropy                ...      0.00000000 Eh      0.00 kcal/mol
Vibrational entropy               ...      0.00779559 Eh      4.89 kcal/mol
Rotational entropy                ...      0.01307791 Eh      8.21 kcal/mol
Translational entropy             ...      0.01884536 Eh     11.83 kcal/mol
-----------------------------------------------------------------------
Final entropy term                ...      0.03971886 Eh     24.92 kcal/mol

In case the symmetry of your molecule has not been determined correctly
or in case you have a reason to use a different symmetry number we print
out the resulting rotational entropy values for sn=1,12:

 non-linear molecules -----------------------------------
|  sn= 1 | S(rot)=       0.01307791 Eh      8.21 kcal/mol|
|  sn= 2 | S(rot)=       0.01242346 Eh      7.80 kcal/mol|
|  sn= 3 | S(rot)=       0.01204062 Eh      7.56 kcal/mol|

                             ****ORCA TERMINATED NORMALLY****
TOTAL RUN TIME: 0 days 0 hours 8 minutes 44 seconds 470 msec
