                         Program Version 6.1.0  -  RELEASE   -
|  1> # avogadro generated ORCA file
|  2> # C6H7N | Frequencies | revPBE/def2-TZVP
|  3> #
|  4> ! Opt Freq revPBE def2-TZVP
|  5>
|  6> %maxcore 16384
|  7>
|  8> %pal
|  9>    nprocs 1
| 10> end
| 11>
| 12> * xyz 0 1
| 13>    C     -3.009159    1.743655    0.060137
| 14>    C     -3.056828    0.347057    0.065177
| 15>    H      0.357988    2.160812   -0.062885
| 16>    H     -1.740842    3.484447    0.020917
| 17>    C     -1.780273    2.398623    0.032063
| 18>    C     -1.880917   -0.407630    0.086352
| 19>    H     -1.098192   -2.270588    0.296111
| 20>    H     -2.781412   -2.209237    0.351066
| 21>    C     -0.602754    1.655995   -0.010271
| 22>    N     -1.935509   -1.802016   -0.034885
| 23>    H     -4.024051   -0.147711    0.052652
| 24>    C     -0.656596    0.259574   -0.005453
| 25>    H     -3.931863    2.317466    0.062250
| 26>    H      0.269569   -0.304446   -0.073387
| 27> *
| 28>
| 29>
| 30>
| 31>                          ****END OF INPUT****
 Total Charge           Charge          ....    0
 Multiplicity           Mult            ....    1
 Number of Electrons    NEL             ....   50
FINAL SINGLE POINT ENERGY      -287.629395744979
FINAL SINGLE POINT ENERGY      -287.630924588144
FINAL SINGLE POINT ENERGY      -287.631012914456
FINAL SINGLE POINT ENERGY      -287.631038603599
FINAL SINGLE POINT ENERGY      -287.631043656089
                    ***********************HURRAY********************

CARTESIAN COORDINATES (ANGSTROEM)
---------------------------------
  C     -3.011425    1.749336    0.054202
  C     -3.068011    0.352443    0.059510
  H      0.370019    2.162926   -0.044651
  H     -1.740357    3.508628    0.012416
  C     -1.779978    2.418182    0.015652
  C     -1.882783   -0.413914    0.027170
  H     -1.102359   -2.287917    0.301894
  H     -2.779163   -2.226906    0.353032
  C     -0.600340    1.661361   -0.016765
  N     -1.935836   -1.815357   -0.038209
  H     -4.036633   -0.154597    0.086029
  C     -0.645104    0.264009   -0.011769
  H     -3.942805    2.320020    0.082304
  H      0.283936   -0.312212   -0.040970

 Multiplicity           Mult            ....    1
 Number of Electrons    NEL             ....   50
 Basis Dimension        Dim             ....  259

ORBITAL ENERGIES
----------------

  NO   OCC          E(Eh)            E(eV)
   0   2.0000     -14.004053      -381.0697
   1   2.0000      -9.933253      -270.2976
   2   2.0000      -9.891812      -269.1699
   3   2.0000      -9.891806      -269.1697
   4   2.0000      -9.888767      -269.0870
   5   2.0000      -9.888753      -269.0866
   6   2.0000      -9.882866      -268.9264
   7   2.0000      -0.838484       -22.8163
   8   2.0000      -0.755351       -20.5542
   9   2.0000      -0.668058       -18.1788
  10   2.0000      -0.651768       -17.7355
  11   2.0000      -0.546254       -14.8643
  12   2.0000      -0.534576       -14.5466
  13   2.0000      -0.467560       -12.7230
  14   2.0000      -0.454395       -12.3647
  15   2.0000      -0.422672       -11.5015
  16   2.0000      -0.378646       -10.3035
  17   2.0000      -0.374597       -10.1933
  18   2.0000      -0.364439        -9.9169
  19   2.0000      -0.337179        -9.1751
  20   2.0000      -0.308447        -8.3933
  21   2.0000      -0.292328        -7.9546
  22   2.0000      -0.271538        -7.3889
  23   2.0000      -0.220665        -6.0046
  24   2.0000      -0.179134        -4.8745
  25   0.0000      -0.033880        -0.9219
  26   0.0000      -0.019846        -0.5400
  27   0.0000       0.013031         0.3546
  28   0.0000       0.036741         0.9998
  29   0.0000       0.047654         1.2967

MULLIKEN ATOMIC CHARGES
-----------------------
   0 C :   -0.055718
   1 C :   -0.233603
   2 H :    0.079235
   3 H :    0.078788
   4 C :   -0.129980
   5 C :    0.303571
   6 H :    0.218658
   7 H :    0.218707
   8 C :   -0.055576
   9 N :   -0.400222
  10 H :    0.065180
  11 C :   -0.233550
  12 H :    0.079263
  13 H :    0.065246
Sum of atomic charges:   -0.0000000

LOEWDIN ATOMIC CHARGES
----------------------
   0 C :   -0.145196
   1 C :   -0.137736
   2 H :    0.140436
   3 H :    0.137528
   4 C :   -0.165432
   5 C :   -0.240826
   6 H :    0.161013
   7 H :    0.161016
   8 C :   -0.145173
   9 N :   -0.044254
  10 H :    0.137975
  11 C :   -0.137765
  12 H :    0.140440
  13 H :    0.137975

  Mayer bond orders larger than 0.100000
B(  0-C ,  1-C ) :   1.4629 B(  0-C ,  4-C ) :   1.4035 B(  0-C , 12-H ) :   0.9656
B(  1-C ,  5-C ) :   1.3591 B(  1-C , 10-H ) :   0.9724 B(  2-H ,  8-C ) :   0.9657
B(  3-H ,  4-C ) :   0.9679 B(  4-C ,  8-C ) :   1.4036 B(  5-C ,  9-N ) :   1.0753
B(  5-C , 11-C ) :   1.3593 B(  6-H ,  9-N ) :   0.9219 B(  7-H ,  9-N ) :   0.9218
B(  8-C , 11-C ) :   1.4632 B( 11-C , 13-H ) :   0.9723

FINAL SINGLE POINT ENERGY      -287.631045088076

DIPOLE MOMENT
-------------

Method             : SCF
Type of density    : Electron Density
Multiplicity       :   1
Irrep              :   0
Energy             :  -287.6310450880762346 Eh
Basis              : AO
                                X                 Y                 Z
Electronic contribution:     -0.000545814       0.152083703      -0.199024364
Nuclear contribution   :     -0.008577446      -0.718482368       0.579378614
                        -----------------------------------------
Total Dipole Moment    :     -0.009123260      -0.566398665       0.380354250
                        -----------------------------------------
Magnitude (a.u.)       :      0.682319601
Magnitude (Debye)      :      1.734318596

VIBRATIONAL FREQUENCIES
-----------------------

Scaling factor for frequencies =  1.000000000  (already applied!)

     0:       0.00 cm**-1
     1:       0.00 cm**-1
     2:       0.00 cm**-1
     3:       0.00 cm**-1
     4:       0.00 cm**-1
     5:       0.00 cm**-1
     6:     210.99 cm**-1
     7:     301.69 cm**-1
     8:     370.91 cm**-1
     9:     397.78 cm**-1
    10:     486.06 cm**-1
    11:     517.49 cm**-1
    12:     593.95 cm**-1
    13:     612.27 cm**-1
    14:     672.76 cm**-1
    15:     727.73 cm**-1
    16:     786.77 cm**-1
    17:     807.89 cm**-1
    18:     836.08 cm**-1
    19:     886.55 cm**-1
    20:     901.06 cm**-1
    21:     979.86 cm**-1
    22:    1020.07 cm**-1
    23:    1037.42 cm**-1
    24:    1106.78 cm**-1
    25:    1146.12 cm**-1
    26:    1166.25 cm**-1
    27:    1267.49 cm**-1
    28:    1321.98 cm**-1
    29:    1340.57 cm**-1
    30:    1454.59 cm**-1
    31:    1483.95 cm**-1
    32:    1573.32 cm**-1
    33:    1595.14 cm**-1
    34:    1611.92 cm**-1
    35:    3081.06 cm**-1
    36:    3082.29 cm**-1
    37:    3098.46 cm**-1
    38:    3103.41 cm**-1
    39:    3122.44 cm**-1
    40:    3464.15 cm**-1
    41:    3559.75 cm**-1

IR SPECTRUM
-----------

 Mode   freq       eps      Int      T**2         TX        TY        TZ
       cm**-1   L/(mol*cm) km/mol    a.u.
----------------------------------------------------------------------------
  6:    210.99   0.000937    4.74  0.001386  ( 0.001567  0.019518  0.031664)
  7:    301.69   0.003830   19.36  0.003962  ( 0.062860 -0.002471 -0.002106)
  8:    370.91   0.000009    0.04  0.000007  (-0.002708 -0.000150 -0.000156)
  9:    397.78   0.000035    0.18  0.000027  ( 0.005213 -0.000331 -0.000391)
 10:    486.06   0.010432   52.72  0.006698  (-0.003637 -0.041086 -0.070686)
 11:    517.49   0.001086    5.49  0.000655  (-0.001186 -0.023343 -0.010427)
 12:    593.95   0.053262  269.16  0.027984  (-0.007826 -0.147641 -0.078263)
 13:    612.27   0.000064    0.32  0.000033  ( 0.005708 -0.000132 -0.000172)
 14:    672.76   0.004573   23.11  0.002121  ( 0.001099 -0.005962  0.045656)
 15:    727.73   0.012611   63.73  0.005408  (-0.002815 -0.020411 -0.070593)
 16:    786.77   0.000019    0.10  0.000008  ( 0.002735 -0.000123 -0.000122)
 17:    807.89   0.000323    1.63  0.000125  (-0.000050 -0.008079  0.007716)
 18:    836.08   0.001775    8.97  0.000662  ( 0.001003  0.008236  0.024364)
 19:    886.55   0.000000    0.00  0.000000  ( 0.000029 -0.000041 -0.000094)
 20:    901.06   0.000004    0.02  0.000001  ( 0.000047  0.000973  0.000542)
 21:    979.86   0.000217    1.10  0.000069  (-0.000183 -0.007666  0.003219)
 22:   1020.07   0.000664    3.36  0.000203  ( 0.000572  0.014243  0.000012)
 23:   1037.42   0.000712    3.60  0.000214  ( 0.014623 -0.000528 -0.000392)
 24:   1106.78   0.000603    3.05  0.000170  (-0.013022  0.000593  0.000408)
 25:   1146.12   0.000252    1.27  0.000069  (-0.008273  0.000300  0.000242)
 26:   1166.25   0.001661    8.39  0.000444  ( 0.000712  0.021049 -0.000923)
 27:   1267.49   0.010486   52.99  0.002582  (-0.001798 -0.050761  0.001325)
 28:   1321.98   0.000010    0.05  0.000002  ( 0.001547 -0.000018 -0.000050)
 29:   1340.57   0.001320    6.67  0.000307  (-0.017507  0.000641  0.000502)
 30:   1454.59   0.000254    1.28  0.000054  ( 0.007371 -0.000212 -0.000220)
 31:   1483.95   0.010929   55.23  0.002298  ( 0.001757  0.047908  0.000265)
 32:   1573.32   0.000793    4.01  0.000157  (-0.012527  0.000472  0.000341)
 33:   1595.14   0.006369   32.18  0.001246  (-0.001474 -0.034371 -0.007896)
 34:   1611.92   0.021656  109.44  0.004193  ( 0.001737  0.062163 -0.018035)
 35:   3081.06   0.003723   18.81  0.000377  (-0.000988 -0.019392  0.000132)
 36:   3082.29   0.000833    4.21  0.000084  ( 0.009141 -0.000837 -0.000259)
 37:   3098.46   0.000712    3.60  0.000072  (-0.000234 -0.008463  0.000071)
 38:   3103.41   0.007683   38.83  0.000773  ( 0.027765 -0.001008 -0.000799)
 39:   3122.44   0.002859   14.45  0.000286  (-0.000559 -0.016893  0.000096)
 40:   3464.15   0.001738    8.78  0.000157  ( 0.000284  0.011611 -0.004653)
 41:   3559.75   0.001821    9.20  0.000160  ( 0.012623 -0.000444 -0.000387)

--------------------------
THERMOCHEMISTRY AT 298.15K
--------------------------

Temperature         ...   298.15 K
Pressure            ...     1.00 atm
Total Mass          ...    93.13 AMU
Quasi RRHO          ...     True
Cut-Off Frequency   ...     1.00 cm^-1

Throughout the following assumptions are being made:
  (1) The electronic state is orbitally nondegenerate
  (2) There are no thermally accessible electronically excited states
  (3) Hindered rotations indicated by low frequency modes are not
      treated as such but are treated as vibrations and this may
      cause some error
  (4) All equations used are the standard statistical mechanics
      equations for an ideal gas
  (5) All vibrations are strictly harmonic

freq.     210.99  E(vib)   ...       0.34
freq.     301.69  E(vib)   ...       0.26
freq.     370.91  E(vib)   ...       0.21
freq.     397.78  E(vib)   ...       0.20
freq.     486.06  E(vib)   ...       0.15
freq.     517.49  E(vib)   ...       0.13
freq.     593.95  E(vib)   ...       0.10
freq.     612.27  E(vib)   ...       0.10
freq.     672.76  E(vib)   ...       0.08
freq.     727.73  E(vib)   ...       0.06
freq.     786.77  E(vib)   ...       0.05
freq.     807.89  E(vib)   ...       0.05
freq.     836.08  E(vib)   ...       0.04
freq.     886.55  E(vib)   ...       0.04
freq.     901.06  E(vib)   ...       0.03
freq.     979.86  E(vib)   ...       0.02
freq.    1020.07  E(vib)   ...       0.02
freq.    1037.42  E(vib)   ...       0.02
freq.    1106.78  E(vib)   ...       0.02
freq.    1146.12  E(vib)   ...       0.01
freq.    1166.25  E(vib)   ...       0.01
freq.    1267.49  E(vib)   ...       0.01
freq.    1321.98  E(vib)   ...       0.01
freq.    1340.57  E(vib)   ...       0.01
freq.    1454.59  E(vib)   ...       0.00
freq.    1483.95  E(vib)   ...       0.00
freq.    1573.32  E(vib)   ...       0.00
freq.    1595.14  E(vib)   ...       0.00
freq.    1611.92  E(vib)   ...       0.00
freq.    3081.06  E(vib)   ...       0.00
freq.    3082.29  E(vib)   ...       0.00
freq.    3098.46  E(vib)   ...       0.00
freq.    3103.41  E(vib)   ...       0.00
freq.    3122.44  E(vib)   ...       0.00
freq.    3464.15  E(vib)   ...       0.00
freq.    3559.75  E(vib)   ...       0.00

------------
INNER ENERGY
------------

The inner energy is: U= E(el) + E(ZPE) + E(vib) + E(rot) + E(trans)
    E(el)   - is the total energy from the electronic structure calculation
              = E(kin-el) + E(nuc-el) + E(el-el) + E(nuc-nuc)
    E(ZPE)  - the the zero temperature vibrational energy from the frequency calculation
    E(vib)  - the the finite temperature correction to E(ZPE) due to population
              of excited vibrational states
    E(rot)  - is the rotational thermal energy
    E(trans)- is the translational thermal energy

Summary of contributions to the inner energy U:
Electronic energy                ...   -287.63104509 Eh
Zero point energy                ...      0.11328643 Eh      71.09 kcal/mol
Thermal vibrational correction   ...      0.00316244 Eh       1.98 kcal/mol
Thermal rotational correction    ...      0.00141627 Eh       0.89 kcal/mol
Thermal translational correction ...      0.00141627 Eh       0.89 kcal/mol
-----------------------------------------------------------------------
Total thermal energy                   -287.51176367 Eh

Summary of corrections to the electronic energy:
(perhaps to be used in another calculation)
Total thermal correction                  0.00599499 Eh       3.76 kcal/mol
Non-thermal (ZPE) correction              0.11328643 Eh      71.09 kcal/mol
-----------------------------------------------------------------------
Total correction                          0.11928142 Eh      74.85 kcal/mol

--------
ENTHALPY
--------

The enthalpy is H = U + kB*T
                kB is Boltzmann's constant
Total thermal energy              ...   -287.51176367 Eh
Thermal Enthalpy correction       ...      0.00094421 Eh       0.59 kcal/mol
-----------------------------------------------------------------------
Total Enthalpy                    ...   -287.51081946 Eh

Note: Only C1 symmetry has been detected, increase convergence thresholds
      if your molecule has a higher symmetry. Symmetry factor of 1.0 is
      used for the rotational entropy correction.

Note: Rotational entropy computed according to Herzberg
Infrared and Raman Spectra, Chapter V,1, Van Nostrand Reinhold, 1945
Point Group:  C1, Symmetry Number:   1
Rotational constants in cm-1:     0.185646     0.085520     0.058646

Vibrational entropy computed according to the QRRHO of S. Grimme
Chem.Eur.J. 2012 18 9955 using a reference frequency of 100.0 cm-1

-------
ENTROPY
-------

The entropy contributions are T*S = T*(S(el)+S(vib)+S(rot)+S(trans))
     S(el)   - electronic entropy
     S(vib)  - vibrational entropy
     S(rot)  - rotational entropy
     S(trans)- translational entropy
The entropies will be listed as multiplied by the temperature to get
units of energy

Electronic entropy                ...      0.00000000 Eh      0.00 kcal/mol
Vibrational entropy               ...      0.00463906 Eh      2.91 kcal/mol
Rotational entropy                ...      0.01280560 Eh      8.04 kcal/mol
Translational entropy             ...      0.01877043 Eh     11.78 kcal/mol
-----------------------------------------------------------------------
Final entropy term                ...      0.03621509 Eh     22.73 kcal/mol

In case the symmetry of your molecule has not been determined correctly
or in case you have a reason to use a different symmetry number we print
out the resulting rotational entropy values for sn=1,12:

 non-linear molecules -----------------------------------
|  sn= 1 | S(rot)=       0.01280560 Eh      8.04 kcal/mol|
|  sn= 2 | S(rot)=       0.01215115 Eh      7.62 kcal/mol|
|  sn= 3 | S(rot)=       0.01176831 Eh      7.38 kcal/mol|
|  sn= 4 | S(rot)=       0.01149669 Eh      7.21 kcal/mol|
|  sn= 5 | S(rot)=       0.01128600 Eh      7.08 kcal/mol|
|  sn= 6 | S(rot)=       0.01111386 Eh      6.97 kcal/mol|
|  sn= 7 | S(rot)=       0.01096831 Eh      6.88 kcal/mol|
|  sn= 8 | S(rot)=       0.01084223 Eh      6.80 kcal/mol|
|  sn= 9 | S(rot)=       0.01073102 Eh      6.73 kcal/mol|
|  sn=10 | S(rot)=       0.01063155 Eh      6.67 kcal/mol|
|  sn=11 | S(rot)=       0.01054155 Eh      6.61 kcal/mol|
|  sn=12 | S(rot)=       0.01045940 Eh      6.56 kcal/mol|
 linear molecules ---------------------------------------
|  Dinfh | S(rot)=       0.00800372 Eh      5.02 kcal/mol|
|  Cinfv | S(rot)=       0.00865818 Eh      5.43 kcal/mol|
 --------------------------------------------------------

-------------------
GIBBS FREE ENERGY
-------------------

The Gibbs free energy is G = H - T*S

                             ****ORCA TERMINATED NORMALLY****
TOTAL RUN TIME: 0 days 0 hours 3 minutes 40 seconds 393 msec
