                         Program Version 6.1.0  -  RELEASE   -
|  1> # avogadro generated ORCA file
|  2> # C6H6Br | Frequencies | revPBE/def2-TZVP
|  3> #
|  4> ! Opt Freq revPBE def2-TZVP
|  5>
|  6> %maxcore 16384
|  7>
|  8> %pal
|  9>    nprocs 1
| 10> end
| 11>
| 12> * xyz 0 2
| 13>    C     -3.346978    1.955738   -0.074315
| 14>    C     -3.467506    0.571847    0.043749
| 15>    H     -1.994706    3.632295   -0.158427
| 16>    C     -2.314737   -0.227170    0.182727
| 17>    C     -2.084376    2.550031   -0.066971
| 18>    Br    -2.392775   -1.922516   -0.943868
| 19>    H     -0.141353   -0.225272    0.247065
| 20>    H     -2.408643   -0.840405    1.111568
| 21>    C     -0.934757    1.766139    0.044124
| 22>    H      0.046359    2.237256    0.037891
| 23>    H     -4.237647    2.574032   -0.172460
| 24>    C     -1.043915    0.381370    0.162749
| 25>    H     -4.457180    0.114000    0.035153
| 26> *
| 27>
| 28>
| 29>
| 30>                          ****END OF INPUT****
 Total Charge           Charge          ....    0
 Multiplicity           Mult            ....    2
 Number of Electrons    NEL             ....   77
FINAL SINGLE POINT ENERGY     -2806.141970599231
FINAL SINGLE POINT ENERGY     -2806.151605998732
FINAL SINGLE POINT ENERGY     -2806.155366906734
FINAL SINGLE POINT ENERGY     -2806.157149731568
FINAL SINGLE POINT ENERGY     -2806.159124053029
FINAL SINGLE POINT ENERGY     -2806.160829125382
FINAL SINGLE POINT ENERGY     -2806.162351348041
FINAL SINGLE POINT ENERGY     -2806.163907387151
FINAL SINGLE POINT ENERGY     -2806.165287576040
FINAL SINGLE POINT ENERGY     -2806.166410359682
FINAL SINGLE POINT ENERGY     -2806.166785393869
FINAL SINGLE POINT ENERGY     -2806.166896335319
FINAL SINGLE POINT ENERGY     -2806.166943572921
FINAL SINGLE POINT ENERGY     -2806.166957655798
FINAL SINGLE POINT ENERGY     -2806.166961142690
                    ***********************HURRAY********************

CARTESIAN COORDINATES (ANGSTROEM)
---------------------------------
  C     -3.357665    1.946952   -0.077972
  C     -3.486743    0.614619    0.311093
  H     -1.982303    3.561280   -0.519645
  C     -2.329189   -0.162288    0.564172
  C     -2.079585    2.517726   -0.212159
  Br    -2.327890   -1.657912   -1.770418
  H     -0.158047   -0.180690    0.630191
  H     -2.428354   -1.165115    0.980048
  C     -0.925695    1.755200    0.041272
  H      0.061561    2.208040   -0.067923
  H     -4.246593    2.547785   -0.279169
  C     -1.045242    0.422076    0.430781
  H     -4.472470    0.159671    0.418715

 Multiplicity           Mult            ....    2
 Number of Electrons    NEL             ....   77
 Basis Dimension        Dim             ....  270

ORBITAL ENERGIES
----------------
                 SPIN UP ORBITALS
  NO   OCC          E(Eh)            E(eV)
   0   1.0000    -481.006436    -13088.8505
   1   1.0000     -61.785813     -1681.2774
   2   1.0000     -55.691494     -1515.4426
   3   1.0000     -55.687530     -1515.3347
   4   1.0000     -55.687515     -1515.3343
   5   1.0000      -9.938071      -270.4286
   6   1.0000      -9.930011      -270.2093
   7   1.0000      -9.927455      -270.1398
   8   1.0000      -9.927408      -270.1385
   9   1.0000      -9.921688      -269.9828
  10   1.0000      -9.921657      -269.9820
  11   1.0000      -8.381977      -228.0852
  12   1.0000      -6.259026      -170.3168
  13   1.0000      -6.244217      -169.9138
  14   1.0000      -6.244153      -169.9120
  15   1.0000      -2.458403       -66.8965
  16   1.0000      -2.454702       -66.7958
  17   1.0000      -2.454673       -66.7951
  18   1.0000      -2.443420       -66.4888
  19   1.0000      -2.443419       -66.4888
  20   1.0000      -0.801810       -21.8184
  21   1.0000      -0.702485       -19.1156
  22   1.0000      -0.700125       -19.0514
  23   1.0000      -0.660512       -17.9734
  24   1.0000      -0.567680       -15.4474
  25   1.0000      -0.565244       -15.3811
  26   1.0000      -0.491523       -13.3750
  27   1.0000      -0.433323       -11.7913
  28   1.0000      -0.421011       -11.4563
  29   1.0000      -0.396277       -10.7833
  30   1.0000      -0.395342       -10.7578
  31   1.0000      -0.359475        -9.7818
  32   1.0000      -0.325410        -8.8549
  33   1.0000      -0.322591        -8.7782
  34   1.0000      -0.284088        -7.7304
  35   1.0000      -0.257767        -7.0142
  36   1.0000      -0.231723        -6.3055
  37   1.0000      -0.229251        -6.2382
  38   1.0000      -0.225360        -6.1324
  39   0.0000      -0.069150        -1.8817
  40   0.0000      -0.063262        -1.7214
  41   0.0000       0.012871         0.3502
  42   0.0000       0.047843         1.3019
  43   0.0000       0.048325         1.3150

                 SPIN DOWN ORBITALS
  NO   OCC          E(Eh)            E(eV)
   0   1.0000    -481.004947    -13088.8100
   1   1.0000     -61.785055     -1681.2568
   2   1.0000     -55.688558     -1515.3627
   3   1.0000     -55.686860     -1515.3165
   4   1.0000     -55.686842     -1515.3160
   5   1.0000      -9.936729      -270.3922
   6   1.0000      -9.928394      -270.1653
   7   1.0000      -9.926223      -270.1063
   8   1.0000      -9.926184      -270.1052
   9   1.0000      -9.922118      -269.9945
  10   1.0000      -9.922090      -269.9938
  11   1.0000      -8.380067      -228.0332
  12   1.0000      -6.254453      -170.1923
  13   1.0000      -6.243230      -169.8869
  14   1.0000      -6.243168      -169.8852
  15   1.0000      -2.453191       -66.7547
  16   1.0000      -2.450747       -66.6882
  17   1.0000      -2.450718       -66.6874
  18   1.0000      -2.442838       -66.4730
  19   1.0000      -2.442837       -66.4730
  20   1.0000      -0.799049       -21.7432
  21   1.0000      -0.698711       -19.0129
  22   1.0000      -0.697993       -18.9934
  23   1.0000      -0.637974       -17.3601
  24   1.0000      -0.565270       -15.3818
  25   1.0000      -0.563493       -15.3334
  26   1.0000      -0.490649       -13.3512
  27   1.0000      -0.431958       -11.7542
  28   1.0000      -0.419621       -11.4185
  29   1.0000      -0.395881       -10.7725
  30   1.0000      -0.393852       -10.7173
  31   1.0000      -0.351852        -9.5744
  32   1.0000      -0.324382        -8.8269
  33   1.0000      -0.321555        -8.7500
  34   1.0000      -0.264622        -7.2007
  35   1.0000      -0.253684        -6.9031
  36   1.0000      -0.222530        -6.0554
  37   1.0000      -0.220934        -6.0119
  38   0.0000      -0.193389        -5.2624
  39   0.0000      -0.060563        -1.6480
  40   0.0000      -0.059132        -1.6091
  41   0.0000       0.013321         0.3625
  42   0.0000       0.047940         1.3045

MULLIKEN ATOMIC CHARGES AND SPIN POPULATIONS
--------------------------------------------
   0 C :   -0.078188   -0.033873
   1 C :   -0.044625    0.089723
   2 H :    0.102043   -0.007125
   3 C :   -0.082816    0.062921
   4 C :   -0.062076    0.134111
   5 Br:   -0.251023    0.700033
   6 H :    0.103342   -0.004297
   7 H :    0.133695    0.003949
   8 C :   -0.078549   -0.034176
   9 H :    0.099463    0.001416
  10 H :    0.099473    0.001402
  11 C :   -0.044027    0.090203
  12 H :    0.103288   -0.004288
Sum of atomic charges         :   -0.0000000

LOEWDIN ATOMIC CHARGES AND SPIN POPULATIONS
-------------------------------------------
   0 C :   -0.126953   -0.003710
   1 C :   -0.116370    0.073767
   2 H :    0.145808   -0.000233
   3 C :   -0.162116    0.082407
   4 C :   -0.101635    0.094262
   5 Br:   -0.133286    0.679048
   6 H :    0.148023   -0.000141
   7 H :    0.150107    0.004596
   8 C :   -0.127024   -0.003893
   9 H :    0.145902   -0.000046
  10 H :    0.145903   -0.000046
  11 C :   -0.116375    0.074134
  12 H :    0.148016   -0.000144

  Mayer bond orders larger than 0.100000
B(  0-C ,  1-C ) :   1.4559 B(  0-C ,  4-C ) :   1.3801 B(  0-C , 10-H ) :   0.9603
B(  1-C ,  3-C ) :   1.3162 B(  1-C , 12-H ) :   0.9558 B(  2-H ,  4-C ) :   0.9588
B(  3-C ,  5-Br) :   0.2804 B(  3-C ,  7-H ) :   0.9506 B(  3-C , 11-C ) :   1.3158
B(  4-C ,  8-C ) :   1.3807 B(  6-H , 11-C ) :   0.9557 B(  8-C ,  9-H ) :   0.9603
B(  8-C , 11-C ) :   1.4556

FINAL SINGLE POINT ENERGY     -2806.166961924552

DIPOLE MOMENT
-------------

Method             : SCF
Type of density    : Electron Density
Multiplicity       :   2
Irrep              :   0
Energy             : -2806.1669619245517424 Eh
Basis              : AO
                                X                 Y                 Z
Electronic contribution:     -0.874118797     -20.018831198     -13.701893358
Nuclear contribution   :      0.919139424      21.156740440      14.576745398
                        -----------------------------------------
Total Dipole Moment    :      0.045020626       1.137909242       0.874852040
                        -----------------------------------------
Magnitude (a.u.)       :      1.436046793
Magnitude (Debye)      :      3.650140866

VIBRATIONAL FREQUENCIES
-----------------------

Scaling factor for frequencies =  1.000000000  (already applied!)

     0:       0.00 cm**-1
     1:       0.00 cm**-1
     2:       0.00 cm**-1
     3:       0.00 cm**-1
     4:       0.00 cm**-1
     5:       0.00 cm**-1
     6:      46.01 cm**-1
     7:      60.01 cm**-1
     8:     123.62 cm**-1
     9:     379.28 cm**-1
    10:     388.34 cm**-1
    11:     586.55 cm**-1
    12:     592.28 cm**-1
    13:     649.20 cm**-1
    14:     690.38 cm**-1
    15:     813.50 cm**-1
    16:     846.56 cm**-1
    17:     925.46 cm**-1
    18:     928.06 cm**-1
    19:     949.16 cm**-1
    20:     973.63 cm**-1
    21:     989.30 cm**-1
    22:    1015.97 cm**-1
    23:    1032.84 cm**-1
    24:    1147.88 cm**-1
    25:    1155.34 cm**-1
    26:    1165.90 cm**-1
    27:    1334.41 cm**-1
    28:    1336.01 cm**-1
    29:    1449.87 cm**-1
    30:    1460.76 cm**-1
    31:    1537.68 cm**-1
    32:    1573.32 cm**-1
    33:    3098.42 cm**-1
    34:    3110.12 cm**-1
    35:    3114.54 cm**-1
    36:    3124.73 cm**-1
    37:    3127.66 cm**-1
    38:    3137.52 cm**-1

IR SPECTRUM
-----------

 Mode   freq       eps      Int      T**2         TX        TY        TZ
       cm**-1   L/(mol*cm) km/mol    a.u.
----------------------------------------------------------------------------
  6:     46.01   0.000020    0.10  0.000134  (-0.011469  0.001543 -0.000410)
  7:     60.01   0.000129    0.65  0.000669  (-0.001944 -0.025274 -0.005172)
  8:    123.62   0.000248    1.25  0.000625  ( 0.000452  0.017327  0.018025)
  9:    379.28   0.000003    0.02  0.000003  ( 0.001553  0.000110  0.000287)
 10:    388.34   0.000171    0.87  0.000138  ( 0.000358  0.009641  0.006668)
 11:    586.55   0.000025    0.13  0.000013  (-0.003631  0.000177 -0.000238)
 12:    592.28   0.000796    4.02  0.000419  (-0.000817 -0.017560 -0.010497)
 13:    649.20   0.007191   36.34  0.003457  ( 0.001349 -0.018180 -0.055894)
 14:    690.38   0.011470   57.96  0.005184  (-0.002000  0.018700  0.069504)
 15:    813.50   0.000094    0.47  0.000036  (-0.005964  0.000560 -0.000235)
 16:    846.56   0.001389    7.02  0.000512  (-0.000383 -0.015321 -0.016648)
 17:    925.46   0.000054    0.27  0.000018  ( 0.004199  0.000417  0.000603)
 18:    928.06   0.001108    5.60  0.000373  ( 0.000758  0.017296  0.008535)
 19:    949.16   0.001666    8.42  0.000548  (-0.000806 -0.019091 -0.013509)
 20:    973.63   0.001069    5.40  0.000343  ( 0.000392  0.013301  0.012871)
 21:    989.30   0.000004    0.02  0.000001  (-0.000039 -0.000792 -0.000728)
 22:   1015.97   0.000532    2.69  0.000163  (-0.000853 -0.012626 -0.001808)
 23:   1032.84   0.000686    3.47  0.000207  ( 0.014343 -0.001070  0.000693)
 24:   1147.88   0.000016    0.08  0.000004  (-0.002104  0.000142 -0.000116)
 25:   1155.34   0.000137    0.69  0.000037  (-0.006049  0.000616 -0.000210)
 26:   1165.90   0.001831    9.25  0.000490  ( 0.000903  0.018617  0.011941)
 27:   1334.41   0.000509    2.57  0.000119  ( 0.010858 -0.000861  0.000585)
 28:   1336.01   0.000027    0.14  0.000006  (-0.002488  0.000233 -0.000115)
 29:   1449.87   0.002230   11.27  0.000480  ( 0.001831  0.013555 -0.017115)
 30:   1460.76   0.002428   12.27  0.000519  (-0.022685  0.001707 -0.001070)
 31:   1537.68   0.000001    0.01  0.000000  (-0.000469 -0.000024 -0.000056)
 32:   1573.32   0.014425   72.90  0.002861  (-0.002177 -0.045764 -0.027606)
 33:   3098.42   0.000040    0.20  0.000004  (-0.000145 -0.001681  0.001110)
 34:   3110.12   0.000710    3.59  0.000071  ( 0.008395 -0.000737  0.000446)
 35:   3114.54   0.001579    7.98  0.000158  ( 0.001220  0.011932 -0.003782)
 36:   3124.73   0.001640    8.29  0.000164  ( 0.000928  0.012620 -0.001923)
 37:   3127.66   0.002582   13.05  0.000258  ( 0.015982 -0.001245  0.000775)
 38:   3137.52   0.001078    5.45  0.000107  ( 0.000137  0.006113  0.008358)

--------------------------
THERMOCHEMISTRY AT 298.15K
--------------------------

Temperature         ...   298.15 K
Pressure            ...     1.00 atm
Total Mass          ...   158.01 AMU
Quasi RRHO          ...     True
Cut-Off Frequency   ...     1.00 cm^-1

Throughout the following assumptions are being made:
  (1) The electronic state is orbitally nondegenerate
      but the spin degeneracy is treated
  (2) There are no thermally accessible electronically excited states
  (3) Hindered rotations indicated by low frequency modes are not
      treated as such but are treated as vibrations and this may
      cause some error
  (4) All equations used are the standard statistical mechanics
      equations for an ideal gas
  (5) All vibrations are strictly harmonic

freq.      46.01  E(vib)   ...       0.53
freq.      60.01  E(vib)   ...       0.51
freq.     123.62  E(vib)   ...       0.43
freq.     379.28  E(vib)   ...       0.21
freq.     388.34  E(vib)   ...       0.20
freq.     586.55  E(vib)   ...       0.11
freq.     592.28  E(vib)   ...       0.10
freq.     649.20  E(vib)   ...       0.08
freq.     690.38  E(vib)   ...       0.07
freq.     813.50  E(vib)   ...       0.05
freq.     846.56  E(vib)   ...       0.04
freq.     925.46  E(vib)   ...       0.03
freq.     928.06  E(vib)   ...       0.03
freq.     949.16  E(vib)   ...       0.03
freq.     973.63  E(vib)   ...       0.03
freq.     989.30  E(vib)   ...       0.02
freq.    1015.97  E(vib)   ...       0.02
freq.    1032.84  E(vib)   ...       0.02
freq.    1147.88  E(vib)   ...       0.01
freq.    1155.34  E(vib)   ...       0.01
freq.    1165.90  E(vib)   ...       0.01
freq.    1334.41  E(vib)   ...       0.01
freq.    1336.01  E(vib)   ...       0.01
freq.    1449.87  E(vib)   ...       0.00
freq.    1460.76  E(vib)   ...       0.00
freq.    1537.68  E(vib)   ...       0.00
freq.    1573.32  E(vib)   ...       0.00
freq.    3098.42  E(vib)   ...       0.00
freq.    3110.12  E(vib)   ...       0.00
freq.    3114.54  E(vib)   ...       0.00
freq.    3124.73  E(vib)   ...       0.00
freq.    3127.66  E(vib)   ...       0.00
freq.    3137.52  E(vib)   ...       0.00

------------
INNER ENERGY
------------

The inner energy is: U= E(el) + E(ZPE) + E(vib) + E(rot) + E(trans)
    E(el)   - is the total energy from the electronic structure calculation
              = E(kin-el) + E(nuc-el) + E(el-el) + E(nuc-nuc)
    E(ZPE)  - the the zero temperature vibrational energy from the frequency calculation
    E(vib)  - the the finite temperature correction to E(ZPE) due to population
              of excited vibrational states
    E(rot)  - is the rotational thermal energy
    E(trans)- is the translational thermal energy

Summary of contributions to the inner energy U:
Electronic energy                ...  -2806.16696192 Eh
Zero point energy                ...      0.09765214 Eh      61.28 kcal/mol
Thermal vibrational correction   ...      0.00411017 Eh       2.58 kcal/mol
Thermal rotational correction    ...      0.00141627 Eh       0.89 kcal/mol
Thermal translational correction ...      0.00141627 Eh       0.89 kcal/mol
-----------------------------------------------------------------------
Total thermal energy                  -2806.06236707 Eh

Summary of corrections to the electronic energy:
(perhaps to be used in another calculation)
Total thermal correction                  0.00694271 Eh       4.36 kcal/mol
Non-thermal (ZPE) correction              0.09765214 Eh      61.28 kcal/mol
-----------------------------------------------------------------------
Total correction                          0.10459485 Eh      65.63 kcal/mol

--------
ENTHALPY
--------

The enthalpy is H = U + kB*T
                kB is Boltzmann's constant
Total thermal energy              ...  -2806.06236707 Eh
Thermal Enthalpy correction       ...      0.00094421 Eh       0.59 kcal/mol
-----------------------------------------------------------------------
Total Enthalpy                    ...  -2806.06142286 Eh

Note: Only C1 symmetry has been detected, increase convergence thresholds
      if your molecule has a higher symmetry. Symmetry factor of 1.0 is
      used for the rotational entropy correction.

Note: Rotational entropy computed according to Herzberg
Infrared and Raman Spectra, Chapter V,1, Van Nostrand Reinhold, 1945
Point Group:  C1, Symmetry Number:   1
Rotational constants in cm-1:     0.120183     0.030184     0.028101

Vibrational entropy computed according to the QRRHO of S. Grimme
Chem.Eur.J. 2012 18 9955 using a reference frequency of 100.0 cm-1

-------
ENTROPY
-------

The entropy contributions are T*S = T*(S(el)+S(vib)+S(rot)+S(trans))
     S(el)   - electronic entropy
     S(vib)  - vibrational entropy
     S(rot)  - rotational entropy
     S(trans)- translational entropy
The entropies will be listed as multiplied by the temperature to get
units of energy

Electronic entropy                ...      0.00065446 Eh      0.41 kcal/mol
Vibrational entropy               ...      0.00718700 Eh      4.51 kcal/mol
Rotational entropy                ...      0.01384985 Eh      8.69 kcal/mol
Translational entropy             ...      0.01951921 Eh     12.25 kcal/mol
-----------------------------------------------------------------------
Final entropy term                ...      0.04121051 Eh     25.86 kcal/mol

In case the symmetry of your molecule has not been determined correctly
or in case you have a reason to use a different symmetry number we print
out the resulting rotational entropy values for sn=1,12:

 non-linear molecules -----------------------------------
|  sn= 1 | S(rot)=       0.01384985 Eh      8.69 kcal/mol|
|  sn= 2 | S(rot)=       0.01319540 Eh      8.28 kcal/mol|
|  sn= 3 | S(rot)=       0.01281256 Eh      8.04 kcal/mol|
|  sn= 4 | S(rot)=       0.01254094 Eh      7.87 kcal/mol|
|  sn= 5 | S(rot)=       0.01233025 Eh      7.74 kcal/mol|
|  sn= 6 | S(rot)=       0.01215811 Eh      7.63 kcal/mol|
|  sn= 7 | S(rot)=       0.01201256 Eh      7.54 kcal/mol|
|  sn= 8 | S(rot)=       0.01188648 Eh      7.46 kcal/mol|
|  sn= 9 | S(rot)=       0.01177527 Eh      7.39 kcal/mol|
|  sn=10 | S(rot)=       0.01167579 Eh      7.33 kcal/mol|
|  sn=11 | S(rot)=       0.01158580 Eh      7.27 kcal/mol|
|  sn=12 | S(rot)=       0.01150365 Eh      7.22 kcal/mol|
 linear molecules ---------------------------------------
|  Dinfh | S(rot)=       0.00869836 Eh      5.46 kcal/mol|
|  Cinfv | S(rot)=       0.00935282 Eh      5.87 kcal/mol|
 --------------------------------------------------------

-------------------
GIBBS FREE ENERGY
-------------------

The Gibbs free energy is G = H - T*S

Total enthalpy                    ...  -2806.06142286 Eh
Total entropy correction          ...     -0.04121051 Eh    -25.86 kcal/mol

                             ****ORCA TERMINATED NORMALLY****
TOTAL RUN TIME: 0 days 0 hours 9 minutes 26 seconds 549 msec
