                         Program Version 6.1.0  -  RELEASE   -
|  1> # avogadro generated ORCA file
|  2> # C6H7N | Geometry Optimization | revPBE/def2-TZVP
|  3> #
|  4> ! Opt revPBE def2-TZVP
|  5>
|  6> %maxcore 16384
|  7>
|  8> %pal
|  9>    nprocs 1
| 10> end
| 11>
| 12> * xyz 0 1
| 13>    C     -3.009159    1.743655    0.060137
| 14>    C     -3.056828    0.347057    0.065177
| 15>    H      0.357988    2.160812   -0.062885
| 16>    H     -1.740842    3.484447    0.020917
| 17>    C     -1.780273    2.398623    0.032063
| 18>    C     -1.880917   -0.407630    0.086352
| 19>    H     -1.098192   -2.270588    0.296111
| 20>    H     -2.781412   -2.209237    0.351066
| 21>    C     -0.602754    1.655995   -0.010271
| 22>    N     -1.935509   -1.802016   -0.034885
| 23>    H     -4.024051   -0.147711    0.052652
| 24>    C     -0.656596    0.259574   -0.005453
| 25>    H     -3.931863    2.317466    0.062250
| 26>    H      0.269569   -0.304446   -0.073387
| 27> *
| 28>
| 29>
| 30>
| 31>                          ****END OF INPUT****
 Total Charge           Charge          ....    0
 Multiplicity           Mult            ....    1
 Number of Electrons    NEL             ....   50
FINAL SINGLE POINT ENERGY      -287.629395744979
FINAL SINGLE POINT ENERGY      -287.630924588144
FINAL SINGLE POINT ENERGY      -287.631012914456
FINAL SINGLE POINT ENERGY      -287.631038603599
FINAL SINGLE POINT ENERGY      -287.631043656089
                    ***********************HURRAY********************

CARTESIAN COORDINATES (ANGSTROEM)
---------------------------------
  C     -3.011425    1.749336    0.054202
  C     -3.068011    0.352443    0.059510
  H      0.370019    2.162926   -0.044651
  H     -1.740357    3.508628    0.012416
  C     -1.779978    2.418182    0.015652
  C     -1.882783   -0.413914    0.027170
  H     -1.102359   -2.287917    0.301894
  H     -2.779163   -2.226906    0.353032
  C     -0.600340    1.661361   -0.016765
  N     -1.935836   -1.815357   -0.038209
  H     -4.036633   -0.154597    0.086029
  C     -0.645104    0.264009   -0.011769
  H     -3.942805    2.320020    0.082304
  H      0.283936   -0.312212   -0.040970

 Multiplicity           Mult            ....    1
 Number of Electrons    NEL             ....   50
 Basis Dimension        Dim             ....  259

ORBITAL ENERGIES
----------------

  NO   OCC          E(Eh)            E(eV)
   0   2.0000     -14.004053      -381.0697
   1   2.0000      -9.933253      -270.2976
   2   2.0000      -9.891812      -269.1699
   3   2.0000      -9.891806      -269.1697
   4   2.0000      -9.888767      -269.0870
   5   2.0000      -9.888753      -269.0866
   6   2.0000      -9.882866      -268.9264
   7   2.0000      -0.838484       -22.8163
   8   2.0000      -0.755351       -20.5542
   9   2.0000      -0.668058       -18.1788
  10   2.0000      -0.651768       -17.7355
  11   2.0000      -0.546254       -14.8643
  12   2.0000      -0.534576       -14.5466
  13   2.0000      -0.467560       -12.7230
  14   2.0000      -0.454395       -12.3647
  15   2.0000      -0.422672       -11.5015
  16   2.0000      -0.378646       -10.3035
  17   2.0000      -0.374597       -10.1933
  18   2.0000      -0.364439        -9.9169
  19   2.0000      -0.337179        -9.1751
  20   2.0000      -0.308447        -8.3933
  21   2.0000      -0.292328        -7.9546
  22   2.0000      -0.271538        -7.3889
  23   2.0000      -0.220665        -6.0046
  24   2.0000      -0.179134        -4.8745
  25   0.0000      -0.033880        -0.9219
  26   0.0000      -0.019846        -0.5400
  27   0.0000       0.013031         0.3546
  28   0.0000       0.036741         0.9998
  29   0.0000       0.047654         1.2967

MULLIKEN ATOMIC CHARGES
-----------------------
   0 C :   -0.055718
   1 C :   -0.233603
   2 H :    0.079235
   3 H :    0.078788
   4 C :   -0.129980
   5 C :    0.303571
   6 H :    0.218658
   7 H :    0.218707
   8 C :   -0.055576
   9 N :   -0.400222
  10 H :    0.065180
  11 C :   -0.233550
  12 H :    0.079263
  13 H :    0.065246
Sum of atomic charges:   -0.0000000

LOEWDIN ATOMIC CHARGES
----------------------
   0 C :   -0.145196
   1 C :   -0.137736
   2 H :    0.140436
   3 H :    0.137528
   4 C :   -0.165432
   5 C :   -0.240826
   6 H :    0.161013
   7 H :    0.161016
   8 C :   -0.145173
   9 N :   -0.044254
  10 H :    0.137975
  11 C :   -0.137765
  12 H :    0.140440
  13 H :    0.137975

  Mayer bond orders larger than 0.100000
B(  0-C ,  1-C ) :   1.4629 B(  0-C ,  4-C ) :   1.4035 B(  0-C , 12-H ) :   0.9656
B(  1-C ,  5-C ) :   1.3591 B(  1-C , 10-H ) :   0.9724 B(  2-H ,  8-C ) :   0.9657
B(  3-H ,  4-C ) :   0.9679 B(  4-C ,  8-C ) :   1.4036 B(  5-C ,  9-N ) :   1.0753
B(  5-C , 11-C ) :   1.3593 B(  6-H ,  9-N ) :   0.9219 B(  7-H ,  9-N ) :   0.9218
B(  8-C , 11-C ) :   1.4632 B( 11-C , 13-H ) :   0.9723

FINAL SINGLE POINT ENERGY      -287.631045088076

DIPOLE MOMENT
-------------

Method             : SCF
Type of density    : Electron Density
Multiplicity       :   1
Irrep              :   0
Energy             :  -287.6310450880762346 Eh
Basis              : AO
                                X                 Y                 Z
Electronic contribution:     -0.000545814       0.152083703      -0.199024364
Nuclear contribution   :     -0.008577446      -0.718482368       0.579378614
                        -----------------------------------------
Total Dipole Moment    :     -0.009123260      -0.566398665       0.380354250
                        -----------------------------------------
Magnitude (a.u.)       :      0.682319601
Magnitude (Debye)      :      1.734318596

Rotational constants in cm-1:             0.185646             0.085520             0.058646
Rotational constants in MHz :          5565.531385          2563.812673          1758.167764

                             ****ORCA TERMINATED NORMALLY****
TOTAL RUN TIME: 0 days 0 hours 0 minutes 58 seconds 800 msec
