                         Program Version 6.1.0  -  RELEASE   -
|  1> # avogadro generated ORCA file
|  2> # C6H11F | Geometry Optimization | revPBE/def2-TZVP
|  3> #
|  4> ! Opt revPBE def2-TZVP
|  5>
|  6> %maxcore 16384
|  7>
|  8> %pal
|  9>    nprocs 1
| 10> end
| 11>
| 12> * xyz 0 1
| 13>    C     -4.257341    2.529246   -0.270542
| 14>    C     -4.266955    1.062796    0.148204
| 15>    H     -1.732251    1.003864    1.380579
| 16>    H     -5.122990    0.546987   -0.301560
| 17>    C     -3.023265    3.257355    0.258693
| 18>    F     -2.996917   -0.905367    0.251218
| 19>    H     -4.277370    2.595732   -1.365334
| 20>    H     -5.163413    3.024299    0.096509
| 21>    C     -1.731151    2.544611   -0.135279
| 22>    H     -3.009061    4.284213   -0.123637
| 23>    H     -3.082187    3.324239    1.352123
| 24>    C     -1.748676    1.078990    0.286061
| 25>    H     -1.596118    2.609868   -1.221993
| 26>    H     -0.875177    3.051272    0.324418
| 27>    C     -2.977446    0.358383   -0.252658
| 28>    H     -0.841968    0.573601   -0.065422
| 29>    H     -4.402833    0.984471    1.234144
| 30>    H     -2.917152    0.274958   -1.343662
| 31> *
| 32>
| 33>
| 34>
| 35>                          ****END OF INPUT****
 Total Charge           Charge          ....    0
 Multiplicity           Mult            ....    1
 Number of Electrons    NEL             ....   56
FINAL SINGLE POINT ENERGY      -335.128623997766
FINAL SINGLE POINT ENERGY      -335.131756525008
FINAL SINGLE POINT ENERGY      -335.132111670270
FINAL SINGLE POINT ENERGY      -335.132210270049
FINAL SINGLE POINT ENERGY      -335.132222822805
FINAL SINGLE POINT ENERGY      -335.132224277004
                    ***********************HURRAY********************

CARTESIAN COORDINATES (ANGSTROEM)
---------------------------------
  C     -4.265008    2.538088   -0.275531
  C     -4.276082    1.057097    0.159345
  H     -1.760464    1.003277    1.398140
  H     -5.134913    0.525060   -0.279146
  C     -3.023926    3.276651    0.260361
  F     -2.994794   -0.980752    0.215326
  H     -4.276383    2.597208   -1.378749
  H     -5.187088    3.032547    0.069534
  C     -1.723212    2.553754   -0.137895
  H     -3.010037    4.313972   -0.111952
  H     -3.083886    3.338898    1.361666
  C     -1.740270    1.072799    0.296913
  H     -1.593927    2.613198   -1.233588
  H     -0.849907    3.059788    0.303790
  C     -2.977723    0.362898   -0.252255
  H     -0.832365    0.552096   -0.045811
  H     -4.374658    0.987186    1.256379
  H     -2.917627    0.295755   -1.354665

 Multiplicity           Mult            ....    1
 Number of Electrons    NEL             ....   56
 Basis Dimension        Dim             ....  283

ORBITAL ENERGIES
----------------

  NO   OCC          E(Eh)            E(eV)
   0   2.0000     -24.233499      -659.4270
   1   2.0000      -9.962464      -271.0924
   2   2.0000      -9.898430      -269.3500
   3   2.0000      -9.898423      -269.3498
   4   2.0000      -9.895526      -269.2709
   5   2.0000      -9.894335      -269.2385
   6   2.0000      -9.894323      -269.2382
   7   2.0000      -1.067169       -29.0391
   8   2.0000      -0.759443       -20.6655
   9   2.0000      -0.678252       -18.4562
  10   2.0000      -0.670383       -18.2421
  11   2.0000      -0.557227       -15.1629
  12   2.0000      -0.548600       -14.9282
  13   2.0000      -0.504813       -13.7367
  14   2.0000      -0.444009       -12.0821
  15   2.0000      -0.425665       -11.5829
  16   2.0000      -0.403677       -10.9846
  17   2.0000      -0.399877       -10.8812
  18   2.0000      -0.370928       -10.0935
  19   2.0000      -0.365964        -9.9584
  20   2.0000      -0.341141        -9.2829
  21   2.0000      -0.335297        -9.1239
  22   2.0000      -0.308143        -8.3850
  23   2.0000      -0.298613        -8.1257
  24   2.0000      -0.293509        -7.9868
  25   2.0000      -0.287756        -7.8302
  26   2.0000      -0.266040        -7.2393
  27   2.0000      -0.257239        -6.9998
  28   0.0000       0.009899         0.2694
  29   0.0000       0.027105         0.7376
  30   0.0000       0.043267         1.1774
  31   0.0000       0.051644         1.4053
  32   0.0000       0.063259         1.7214

MULLIKEN ATOMIC CHARGES
-----------------------
   0 C :   -0.157324
   1 C :   -0.125032
   2 H :    0.064766
   3 H :    0.087063
   4 C :   -0.128739
   5 F :   -0.219298
   6 H :    0.067884
   7 H :    0.085389
   8 C :   -0.157178
   9 H :    0.083153
  10 H :    0.064044
  11 C :   -0.125010
  12 H :    0.068069
  13 H :    0.085347
  14 C :    0.120940
  15 H :    0.087066
  16 H :    0.064988
  17 H :    0.033872
Sum of atomic charges:   -0.0000000

LOEWDIN ATOMIC CHARGES
----------------------
   0 C :   -0.255516
   1 C :   -0.240841
   2 H :    0.139333
   3 H :    0.136969
   4 C :   -0.261432
   5 F :    0.075716
   6 H :    0.134623
   7 H :    0.134508
   8 C :   -0.255497
   9 H :    0.133694
  10 H :    0.134662
  11 C :   -0.240851
  12 H :    0.134661
  13 H :    0.134496
  14 C :   -0.314458
  15 H :    0.136967
  16 H :    0.139355
  17 H :    0.133611

  Mayer bond orders larger than 0.100000
B(  0-C ,  1-C ) :   1.0146 B(  0-C ,  4-C ) :   1.0463 B(  0-C ,  6-H ) :   0.9468
B(  0-C ,  7-H ) :   0.9374 B(  1-C ,  3-H ) :   0.9389 B(  1-C , 14-C ) :   1.0278
B(  1-C , 16-H ) :   0.9354 B(  2-H , 11-C ) :   0.9354 B(  4-C ,  8-C ) :   1.0462
B(  4-C ,  9-H ) :   0.9403 B(  4-C , 10-H ) :   0.9429 B(  5-F , 14-C ) :   1.0744
B(  8-C , 11-C ) :   1.0146 B(  8-C , 12-H ) :   0.9468 B(  8-C , 13-H ) :   0.9374
B( 11-C , 14-C ) :   1.0279 B( 11-C , 15-H ) :   0.9388 B( 14-C , 17-H ) :   0.9535

FINAL SINGLE POINT ENERGY      -335.132224441443

DIPOLE MOMENT
-------------

Method             : SCF
Type of density    : Electron Density
Multiplicity       :   1
Irrep              :   0
Energy             :  -335.1322244414432703 Eh
Basis              : AO
                                X                 Y                 Z
Electronic contribution:      0.029350786      -8.685941739       0.471070847
Nuclear contribution   :     -0.025019950       9.496408949      -0.644111733
                        -----------------------------------------
Total Dipole Moment    :      0.004330836       0.810467210      -0.173040886
                        -----------------------------------------
Magnitude (a.u.)       :      0.828745439
Magnitude (Debye)      :      2.106503500

Rotational constants in cm-1:             0.141956             0.071548             0.052018
Rotational constants in MHz :          4255.732677          2144.968812          1559.468313

                             ****ORCA TERMINATED NORMALLY****
TOTAL RUN TIME: 0 days 0 hours 1 minutes 20 seconds 553 msec
