                         Program Version 6.1.0  -  RELEASE   -
|  1> # avogadro generated ORCA file
|  2> # C7H8O | Frequencies | revPBE/def2-TZVP
|  3> #
|  4> ! Opt Freq revPBE def2-TZVP
|  5>
|  6> %maxcore 16384
|  7>
|  8> %pal
|  9>    nprocs 1
| 10> end
| 11>
| 12> * xyz 0 1
| 13>    C     -2.404980    0.574912   -0.000109
| 14>    C     -2.326273   -0.818739   -0.000127
| 15>    C      0.082689   -3.532877   -0.000256
| 16>    H      0.913833    1.292863   -0.000225
| 17>    C     -1.238297    1.335117   -0.000144
| 18>    C     -1.086225   -1.463181   -0.000181
| 19>    H     -0.142813   -4.603777   -0.000251
| 20>    H     -3.375573    1.063240   -0.000067
| 21>    C      0.080296   -0.696611   -0.000217
| 22>    H     -3.238904   -1.409551   -0.000099
| 23>    O     -1.152832   -2.829459   -0.000192
| 24>    H     -1.295460    2.420391   -0.000130
| 25>    H      0.661548   -3.314856   -0.903949
| 26>    H      0.661638   -3.314867    0.903382
| 27>    C      0.002561    0.700036   -0.000198
| 28>    H      1.064499   -1.152181   -0.000259
| 29> *
| 30>
| 31>
| 32>
| 33>                          ****END OF INPUT****
 Total Charge           Charge          ....    0
 Multiplicity           Mult            ....    1
 Number of Electrons    NEL             ....   58
FINAL SINGLE POINT ENERGY      -346.796885691433
FINAL SINGLE POINT ENERGY      -346.797911529571
FINAL SINGLE POINT ENERGY      -346.798103762134
FINAL SINGLE POINT ENERGY      -346.798132688971
FINAL SINGLE POINT ENERGY      -346.798137377610
                    ***********************HURRAY********************

CARTESIAN COORDINATES (ANGSTROEM)
---------------------------------
  C     -2.413169    0.582645   -0.000106
  C     -2.348715   -0.811144   -0.000126
  C      0.097928   -3.547625   -0.000254
  H      0.922496    1.290950   -0.000230
  C     -1.239233    1.353762   -0.000142
  C     -1.097391   -1.459559   -0.000185
  H     -0.172980   -4.610528   -0.000254
  H     -3.389790    1.072143   -0.000060
  C      0.083346   -0.695379   -0.000222
  H     -3.254684   -1.419907   -0.000098
  O     -1.142582   -2.833991   -0.000201
  H     -1.293339    2.443744   -0.000126
  H      0.695739   -3.323969   -0.900392
  H      0.695806   -3.323986    0.899844
  C     -0.000419    0.706212   -0.000201
  H      1.062695   -1.172909   -0.000268

 Multiplicity           Mult            ....    1
 Number of Electrons    NEL             ....   58
 Basis Dimension        Dim             ....  296

ORBITAL ENERGIES
----------------

  NO   OCC          E(Eh)            E(eV)
   0   2.0000     -18.796115      -511.4683
   1   2.0000      -9.953392      -270.8456
   2   2.0000      -9.947752      -270.6921
   3   2.0000      -9.897673      -269.3294
   4   2.0000      -9.896495      -269.2973
   5   2.0000      -9.895531      -269.2711
   6   2.0000      -9.891926      -269.1730
   7   2.0000      -9.889351      -269.1029
   8   2.0000      -0.974776       -26.5250
   9   2.0000      -0.770918       -20.9778
  10   2.0000      -0.684424       -18.6241
  11   2.0000      -0.672559       -18.3013
  12   2.0000      -0.627469       -17.0743
  13   2.0000      -0.546053       -14.8589
  14   2.0000      -0.529868       -14.4184
  15   2.0000      -0.481231       -13.0949
  16   2.0000      -0.432421       -11.7668
  17   2.0000      -0.424123       -11.5410
  18   2.0000      -0.415308       -11.3011
  19   2.0000      -0.394023       -10.7219
  20   2.0000      -0.372733       -10.1426
  21   2.0000      -0.363884        -9.9018
  22   2.0000      -0.335156        -9.1200
  23   2.0000      -0.320062        -8.7093
  24   2.0000      -0.310772        -8.4565
  25   2.0000      -0.282719        -7.6932
  26   2.0000      -0.280454        -7.6315
  27   2.0000      -0.225810        -6.1446
  28   2.0000      -0.194244        -5.2856
  29   0.0000      -0.038409        -1.0452
  30   0.0000      -0.024375        -0.6633
  31   0.0000       0.021562         0.5867
  32   0.0000       0.036339         0.9888
  33   0.0000       0.052093         1.4175

MULLIKEN ATOMIC CHARGES
-----------------------
   0 C :   -0.054150
   1 C :   -0.183688
   2 C :   -0.191360
   3 H :    0.085485
   4 C :   -0.113404
   5 C :    0.294220
   6 H :    0.128094
   7 H :    0.082858
   8 C :   -0.226361
   9 H :    0.077468
  10 O :   -0.196920
  11 H :    0.082011
  12 H :    0.111849
  13 H :    0.111849
  14 C :   -0.097292
  15 H :    0.089341
Sum of atomic charges:    0.0000000

LOEWDIN ATOMIC CHARGES
----------------------
   0 C :   -0.140521
   1 C :   -0.118466
   2 C :   -0.329310
   3 H :    0.141076
   4 C :   -0.159002
   5 C :   -0.246719
   6 H :    0.114361
   7 H :    0.141594
   8 C :   -0.145162
   9 H :    0.145244
  10 O :    0.242689
  11 H :    0.138910
  12 H :    0.106979
  13 H :    0.106980
  14 C :   -0.142280
  15 H :    0.143628

  Mayer bond orders larger than 0.100000
B(  0-C ,  1-C ) :   1.4506 B(  0-C ,  4-C ) :   1.3825 B(  0-C ,  7-H ) :   0.9719
B(  1-C ,  5-C ) :   1.3550 B(  1-C ,  9-H ) :   0.9789 B(  2-C ,  6-H ) :   0.9689
B(  2-C , 10-O ) :   0.9761 B(  2-C , 12-H ) :   0.9591 B(  2-C , 13-H ) :   0.9591
B(  3-H , 14-C ) :   0.9574 B(  4-C , 11-H ) :   0.9680 B(  4-C , 14-C ) :   1.4377
B(  5-C ,  8-C ) :   1.3075 B(  5-C , 10-O ) :   1.1607 B(  8-C , 14-C ) :   1.3843
B(  8-C , 15-H ) :   0.9572

FINAL SINGLE POINT ENERGY      -346.798138053904

DIPOLE MOMENT
-------------

Method             : SCF
Type of density    : Electron Density
Multiplicity       :   1
Irrep              :   0
Energy             :  -346.7981380539037559 Eh
Basis              : AO
                                X                 Y                 Z
Electronic contribution:     -2.467113804       1.258352553       0.000102386
Nuclear contribution   :      2.922842225      -1.506773119      -0.000121309
                        -----------------------------------------
Total Dipole Moment    :      0.455728421      -0.248420565      -0.000018922
                        -----------------------------------------
Magnitude (a.u.)       :      0.519038699
Magnitude (Debye)      :      1.319291528

VIBRATIONAL FREQUENCIES
-----------------------

Scaling factor for frequencies =  1.000000000  (already applied!)

     0:       0.00 cm**-1
     1:       0.00 cm**-1
     2:       0.00 cm**-1
     3:       0.00 cm**-1
     4:       0.00 cm**-1
     5:       0.00 cm**-1
     6:      93.44 cm**-1
     7:     197.04 cm**-1
     8:     245.00 cm**-1
     9:     256.80 cm**-1
    10:     405.08 cm**-1
    11:     432.63 cm**-1
    12:     496.75 cm**-1
    13:     540.88 cm**-1
    14:     605.11 cm**-1
    15:     671.03 cm**-1
    16:     730.78 cm**-1
    17:     772.25 cm**-1
    18:     790.49 cm**-1
    19:     850.62 cm**-1
    20:     896.28 cm**-1
    21:     909.08 cm**-1
    22:     979.41 cm**-1
    23:    1010.55 cm**-1
    24:    1028.19 cm**-1
    25:    1072.43 cm**-1
    26:    1125.83 cm**-1
    27:    1145.62 cm**-1
    28:    1159.54 cm**-1
    29:    1163.10 cm**-1
    30:    1227.82 cm**-1
    31:    1298.69 cm**-1
    32:    1339.11 cm**-1
    33:    1421.93 cm**-1
    34:    1439.52 cm**-1
    35:    1442.91 cm**-1
    36:    1458.18 cm**-1
    37:    1479.08 cm**-1
    38:    1572.60 cm**-1
    39:    1590.05 cm**-1
    40:    2932.87 cm**-1
    41:    2992.27 cm**-1
    42:    3062.92 cm**-1
    43:    3092.57 cm**-1
    44:    3099.52 cm**-1
    45:    3116.63 cm**-1
    46:    3123.72 cm**-1
    47:    3134.58 cm**-1

IR SPECTRUM
-----------

 Mode   freq       eps      Int      T**2         TX        TY        TZ
       cm**-1   L/(mol*cm) km/mol    a.u.
----------------------------------------------------------------------------
  6:     93.44   0.000727    3.68  0.002429  ( 0.000000  0.000005 -0.049283)
  7:    197.04   0.000019    0.09  0.000029  (-0.000004 -0.000002 -0.005419)
  8:    245.00   0.000430    2.17  0.000548  ( 0.008101  0.021954 -0.000000)
  9:    256.80   0.000062    0.31  0.000075  ( 0.000005  0.000005  0.008675)
 10:    405.08   0.000001    0.01  0.000001  (-0.000000  0.000007 -0.001053)
 11:    432.63   0.000189    0.95  0.000136  (-0.010971  0.003971 -0.000001)
 12:    496.75   0.002013   10.18  0.001265  (-0.000002  0.000006 -0.035565)
 13:    540.88   0.001108    5.60  0.000639  (-0.005963 -0.024571 -0.000000)
 14:    605.11   0.000095    0.48  0.000049  ( 0.006208 -0.003203 -0.000001)
 15:    671.03   0.004037   20.40  0.001878  ( 0.000013 -0.000002  0.043332)
 16:    730.78   0.011444   57.83  0.004887  (-0.000015  0.000003 -0.069906)
 17:    772.25   0.002673   13.51  0.001080  ( 0.006723  0.032171  0.000001)
 18:    790.49   0.000011    0.05  0.000004  (-0.000003 -0.000000  0.002047)
 19:    850.62   0.001287    6.50  0.000472  ( 0.000014  0.000002  0.021725)
 20:    896.28   0.000012    0.06  0.000004  (-0.000001 -0.000012 -0.002013)
 21:    909.08   0.000031    0.16  0.000011  (-0.000004  0.000004  0.003284)
 22:    979.41   0.000195    0.99  0.000062  (-0.007256 -0.003076  0.000000)
 23:   1010.55   0.002630   13.29  0.000812  ( 0.024815 -0.014016 -0.000001)
 24:   1028.19   0.008664   43.78  0.002630  (-0.032054  0.040027  0.000002)
 25:   1072.43   0.001799    9.09  0.000523  (-0.022637 -0.003312  0.000001)
 26:   1125.83   0.000074    0.37  0.000020  (-0.000000  0.000001 -0.004518)
 27:   1145.62   0.000603    3.05  0.000164  (-0.001933 -0.012671 -0.000000)
 28:   1159.54   0.003778   19.09  0.001017  ( 0.008104 -0.030838 -0.000001)
 29:   1163.10   0.001928    9.74  0.000517  ( 0.012515 -0.018989 -0.000001)
 30:   1227.82   0.042034  212.42  0.010683  ( 0.027156 -0.099729 -0.000002)
 31:   1298.69   0.000289    1.46  0.000069  ( 0.000291 -0.008327 -0.000000)
 32:   1339.11   0.002908   14.69  0.000678  (-0.015517  0.020900  0.000001)
 33:   1421.93   0.001473    7.45  0.000323  ( 0.002098  0.017859  0.000000)
 34:   1439.52   0.000898    4.54  0.000195  ( 0.001803  0.013835  0.000000)
 35:   1442.91   0.001373    6.94  0.000297  (-0.000001 -0.000001 -0.017235)
 36:   1458.18   0.006237   31.52  0.001335  ( 0.009525 -0.035270 -0.000001)
 37:   1479.08   0.014401   72.78  0.003038  ( 0.009344 -0.054325 -0.000001)
 38:   1572.60   0.004035   20.39  0.000801  (-0.011352 -0.025919  0.000000)
 39:   1590.05   0.012303   62.18  0.002415  ( 0.014412 -0.046978 -0.000001)
 40:   2932.87   0.011200   56.60  0.001192  (-0.027008  0.021500  0.000002)
 41:   2992.27   0.007770   39.26  0.000810  ( 0.000001 -0.000001  0.028466)
 42:   3062.92   0.004286   21.66  0.000437  (-0.004486 -0.020410 -0.000000)
 43:   3092.57   0.000500    2.53  0.000050  (-0.000815 -0.007058 -0.000000)
 44:   3099.52   0.002383   12.04  0.000240  (-0.015483 -0.000472  0.000001)
 45:   3116.63   0.004051   20.47  0.000406  (-0.007247 -0.018791  0.000000)
 46:   3123.72   0.002705   13.67  0.000270  ( 0.011403 -0.011843 -0.000001)
 47:   3134.58   0.001310    6.62  0.000130  ( 0.011016 -0.003004 -0.000000)

--------------------------
THERMOCHEMISTRY AT 298.15K
--------------------------

Temperature         ...   298.15 K
Pressure            ...     1.00 atm
Total Mass          ...   108.14 AMU
Quasi RRHO          ...     True
Cut-Off Frequency   ...     1.00 cm^-1

Throughout the following assumptions are being made:
  (1) The electronic state is orbitally nondegenerate
  (2) There are no thermally accessible electronically excited states
  (3) Hindered rotations indicated by low frequency modes are not
      treated as such but are treated as vibrations and this may
      cause some error
  (4) All equations used are the standard statistical mechanics
      equations for an ideal gas
  (5) All vibrations are strictly harmonic

freq.      93.44  E(vib)   ...       0.47
freq.     197.04  E(vib)   ...       0.35
freq.     245.00  E(vib)   ...       0.31
freq.     256.80  E(vib)   ...       0.30
freq.     405.08  E(vib)   ...       0.19
freq.     432.63  E(vib)   ...       0.18
freq.     496.75  E(vib)   ...       0.14
freq.     540.88  E(vib)   ...       0.12
freq.     605.11  E(vib)   ...       0.10
freq.     671.03  E(vib)   ...       0.08
freq.     730.78  E(vib)   ...       0.06
freq.     772.25  E(vib)   ...       0.05
freq.     790.49  E(vib)   ...       0.05
freq.     850.62  E(vib)   ...       0.04
freq.     896.28  E(vib)   ...       0.03
freq.     909.08  E(vib)   ...       0.03
freq.     979.41  E(vib)   ...       0.03
freq.    1010.55  E(vib)   ...       0.02
freq.    1028.19  E(vib)   ...       0.02
freq.    1072.43  E(vib)   ...       0.02
freq.    1125.83  E(vib)   ...       0.01
freq.    1145.62  E(vib)   ...       0.01
freq.    1159.54  E(vib)   ...       0.01
freq.    1163.10  E(vib)   ...       0.01
freq.    1227.82  E(vib)   ...       0.01
freq.    1298.69  E(vib)   ...       0.01
freq.    1339.11  E(vib)   ...       0.01
freq.    1421.93  E(vib)   ...       0.00
freq.    1439.52  E(vib)   ...       0.00
freq.    1442.91  E(vib)   ...       0.00
freq.    1458.18  E(vib)   ...       0.00
freq.    1479.08  E(vib)   ...       0.00
freq.    1572.60  E(vib)   ...       0.00
freq.    1590.05  E(vib)   ...       0.00
freq.    2932.87  E(vib)   ...       0.00
freq.    2992.27  E(vib)   ...       0.00
freq.    3062.92  E(vib)   ...       0.00
freq.    3092.57  E(vib)   ...       0.00
freq.    3099.52  E(vib)   ...       0.00
freq.    3116.63  E(vib)   ...       0.00
freq.    3123.72  E(vib)   ...       0.00
freq.    3134.58  E(vib)   ...       0.00

------------
INNER ENERGY
------------

The inner energy is: U= E(el) + E(ZPE) + E(vib) + E(rot) + E(trans)
    E(el)   - is the total energy from the electronic structure calculation
              = E(kin-el) + E(nuc-el) + E(el-el) + E(nuc-nuc)
    E(ZPE)  - the the zero temperature vibrational energy from the frequency calculation
    E(vib)  - the the finite temperature correction to E(ZPE) due to population
              of excited vibrational states
    E(rot)  - is the rotational thermal energy
    E(trans)- is the translational thermal energy

Summary of contributions to the inner energy U:
Electronic energy                ...   -346.79813805 Eh
Zero point energy                ...      0.12849536 Eh      80.63 kcal/mol
Thermal vibrational correction   ...      0.00430362 Eh       2.70 kcal/mol
Thermal rotational correction    ...      0.00141627 Eh       0.89 kcal/mol
Thermal translational correction ...      0.00141627 Eh       0.89 kcal/mol
-----------------------------------------------------------------------
Total thermal energy                   -346.66250654 Eh

Summary of corrections to the electronic energy:
(perhaps to be used in another calculation)
Total thermal correction                  0.00713616 Eh       4.48 kcal/mol
Non-thermal (ZPE) correction              0.12849536 Eh      80.63 kcal/mol
-----------------------------------------------------------------------
Total correction                          0.13563152 Eh      85.11 kcal/mol

--------
ENTHALPY
--------

The enthalpy is H = U + kB*T
                kB is Boltzmann's constant
Total thermal energy              ...   -346.66250654 Eh
Thermal Enthalpy correction       ...      0.00094421 Eh       0.59 kcal/mol
-----------------------------------------------------------------------
Total Enthalpy                    ...   -346.66156233 Eh

Note: Rotational entropy computed according to Herzberg
Infrared and Raman Spectra, Chapter V,1, Van Nostrand Reinhold, 1945
Point Group:  Cs, Symmetry Number:   1
Rotational constants in cm-1:     0.166360     0.051446     0.039596

Vibrational entropy computed according to the QRRHO of S. Grimme
Chem.Eur.J. 2012 18 9955 using a reference frequency of 100.0 cm-1

-------
ENTROPY
-------

The entropy contributions are T*S = T*(S(el)+S(vib)+S(rot)+S(trans))
     S(el)   - electronic entropy
     S(vib)  - vibrational entropy
     S(rot)  - rotational entropy
     S(trans)- translational entropy
The entropies will be listed as multiplied by the temperature to get
units of energy

Electronic entropy                ...      0.00000000 Eh      0.00 kcal/mol
Vibrational entropy               ...      0.00690729 Eh      4.33 kcal/mol
Rotational entropy                ...      0.01328275 Eh      8.34 kcal/mol
Translational entropy             ...      0.01898207 Eh     11.91 kcal/mol
-----------------------------------------------------------------------
Final entropy term                ...      0.03917211 Eh     24.58 kcal/mol

In case the symmetry of your molecule has not been determined correctly
or in case you have a reason to use a different symmetry number we print
out the resulting rotational entropy values for sn=1,12:

 non-linear molecules -----------------------------------
|  sn= 1 | S(rot)=       0.01328275 Eh      8.34 kcal/mol|
|  sn= 2 | S(rot)=       0.01262829 Eh      7.92 kcal/mol|
|  sn= 3 | S(rot)=       0.01224546 Eh      7.68 kcal/mol|
|  sn= 4 | S(rot)=       0.01197383 Eh      7.51 kcal/mol|
|  sn= 5 | S(rot)=       0.01176315 Eh      7.38 kcal/mol|
|  sn= 6 | S(rot)=       0.01159100 Eh      7.27 kcal/mol|
|  sn= 7 | S(rot)=       0.01144546 Eh      7.18 kcal/mol|
|  sn= 8 | S(rot)=       0.01131938 Eh      7.10 kcal/mol|
|  sn= 9 | S(rot)=       0.01120817 Eh      7.03 kcal/mol|
|  sn=10 | S(rot)=       0.01110869 Eh      6.97 kcal/mol|
|  sn=11 | S(rot)=       0.01101870 Eh      6.91 kcal/mol|
|  sn=12 | S(rot)=       0.01093655 Eh      6.86 kcal/mol|
 linear molecules ---------------------------------------
|  Dinfh | S(rot)=       0.00837460 Eh      5.26 kcal/mol|
|  Cinfv | S(rot)=       0.00902905 Eh      5.67 kcal/mol|
 --------------------------------------------------------

-------------------
GIBBS FREE ENERGY
-------------------

The Gibbs free energy is G = H - T*S

                             ****ORCA TERMINATED NORMALLY****
TOTAL RUN TIME: 0 days 0 hours 4 minutes 35 seconds 279 msec
