                         Program Version 6.1.0  -  RELEASE   -
|  1> # avogadro generated ORCA file
|  2> # C7H5N | Geometry Optimization | revPBE/def2-TZVP
|  3> #
|  4> ! Opt revPBE def2-TZVP
|  5>
|  6> %maxcore 16384
|  7>
|  8> %pal
|  9>    nprocs 1
| 10> end
| 11>
| 12> * xyz 0 1
| 13>    C     -3.760848    2.328721   -0.000052
| 14>    C     -3.760030    0.932465   -0.000070
| 15>    C     -2.548515    0.232400   -0.000094
| 16>    H     -0.403555    2.879954   -0.000091
| 17>    C     -2.553328    3.027116   -0.000061
| 18>    C     -2.544999   -1.201216   -0.000113
| 19>    H     -4.707699    0.397393   -0.000064
| 20>    N     -2.540882   -2.361985   -0.000129
| 21>    C     -1.343488    2.333020   -0.000085
| 22>    H     -2.555194    4.114867   -0.000049
| 23>    H     -4.702538    2.872610   -0.000033
| 24>    C     -1.339451    0.936852   -0.000100
| 25>    H     -0.390000    0.404908   -0.000118
| 26> *
| 27>
| 28>
| 29>
| 30>                          ****END OF INPUT****
 Total Charge           Charge          ....    0
 Multiplicity           Mult            ....    1
 Number of Electrons    NEL             ....   54
FINAL SINGLE POINT ENERGY      -324.522418924413
FINAL SINGLE POINT ENERGY      -324.522964294856
FINAL SINGLE POINT ENERGY      -324.523021183428
FINAL SINGLE POINT ENERGY      -324.523035966857
FINAL SINGLE POINT ENERGY      -324.523039796705
                    ***********************HURRAY********************

CARTESIAN COORDINATES (ANGSTROEM)
---------------------------------
  C     -3.766730    2.333312   -0.000053
  C     -3.771509    0.935996   -0.000070
  C     -2.548012    0.231593   -0.000094
  H     -0.392042    2.883921   -0.000090
  C     -2.553414    3.035914   -0.000060
  C     -2.545226   -1.204036   -0.000112
  H     -4.710898    0.381595   -0.000064
  N     -2.542657   -2.373155   -0.000127
  C     -1.337391    2.337999   -0.000084
  H     -2.555522    4.127741   -0.000047
  H     -4.714173    2.875593   -0.000034
  C     -1.327229    0.940714   -0.000102
  H     -0.385724    0.389917   -0.000121

 Multiplicity           Mult            ....    1
 Number of Electrons    NEL             ....   54
 Basis Dimension        Dim             ....  278

ORBITAL ENERGIES
----------------

  NO   OCC          E(Eh)            E(eV)
   0   2.0000     -13.994266      -380.8033
   1   2.0000      -9.953866      -270.8585
   2   2.0000      -9.932566      -270.2789
   3   2.0000      -9.931191      -270.2414
   4   2.0000      -9.931176      -270.2410
   5   2.0000      -9.927064      -270.1291
   6   2.0000      -9.925635      -270.0903
   7   2.0000      -9.925587      -270.0889
   8   2.0000      -0.828922       -22.5561
   9   2.0000      -0.803501       -21.8644
  10   2.0000      -0.717496       -19.5241
  11   2.0000      -0.703987       -19.1565
  12   2.0000      -0.596586       -16.2339
  13   2.0000      -0.573363       -15.6020
  14   2.0000      -0.514564       -14.0020
  15   2.0000      -0.458159       -12.4671
  16   2.0000      -0.433510       -11.7964
  17   2.0000      -0.412725       -11.2308
  18   2.0000      -0.399724       -10.8770
  19   2.0000      -0.369329       -10.0500
  20   2.0000      -0.342625        -9.3233
  21   2.0000      -0.332941        -9.0598
  22   2.0000      -0.316042        -8.5999
  23   2.0000      -0.310952        -8.4614
  24   2.0000      -0.296360        -8.0644
  25   2.0000      -0.256410        -6.9773
  26   2.0000      -0.246768        -6.7149
  27   0.0000      -0.090146        -2.4530
  28   0.0000      -0.067116        -1.8263
  29   0.0000      -0.009279        -0.2525
  30   0.0000       0.008901         0.2422
  31   0.0000       0.025063         0.6820

MULLIKEN ATOMIC CHARGES
-----------------------
   0 C :   -0.058000
   1 C :   -0.216979
   2 C :    0.350715
   3 H :    0.099997
   4 C :   -0.083595
   5 C :   -0.298326
   6 H :    0.110456
   7 N :    0.060116
   8 C :   -0.057993
   9 H :    0.100148
  10 H :    0.099995
  11 C :   -0.216985
  12 H :    0.110451
Sum of atomic charges:    0.0000000

LOEWDIN ATOMIC CHARGES
----------------------
   0 C :   -0.124761
   1 C :   -0.075387
   2 C :   -0.143120
   3 H :    0.146922
   4 C :   -0.119255
   5 C :   -0.155522
   6 H :    0.153648
   7 N :    0.071361
   8 C :   -0.124758
   9 H :    0.145671
  10 H :    0.146922
  11 C :   -0.075371
  12 H :    0.153649

  Mayer bond orders larger than 0.100000
B(  0-C ,  1-C ) :   1.4331 B(  0-C ,  4-C ) :   1.3962 B(  0-C , 10-H ) :   0.9646
B(  1-C ,  2-C ) :   1.3354 B(  1-C ,  6-H ) :   0.9740 B(  2-C ,  5-C ) :   0.9136
B(  2-C , 11-C ) :   1.3354 B(  3-H ,  8-C ) :   0.9646 B(  4-C ,  8-C ) :   1.3962
B(  4-C ,  9-H ) :   0.9620 B(  5-C ,  7-N ) :   3.1190 B(  8-C , 11-C ) :   1.4331
B( 11-C , 12-H ) :   0.9740

FINAL SINGLE POINT ENERGY      -324.523040128494

DIPOLE MOMENT
-------------

Method             : SCF
Type of density    : Electron Density
Multiplicity       :   1
Irrep              :   0
Energy             :  -324.5230401284939035 Eh
Basis              : AO
                                X                 Y                 Z
Electronic contribution:      0.008718229      -4.491097190      -0.000055089
Nuclear contribution   :     -0.012370138       6.300819917       0.000077593
                        -----------------------------------------
Total Dipole Moment    :     -0.003651909       1.809722727       0.000022504
                        -----------------------------------------
Magnitude (a.u.)       :      1.809726412
Magnitude (Debye)      :      4.599958974

Rotational constants in cm-1:             0.186961             0.051004             0.040072
Rotational constants in MHz :          5604.961487          1529.060538          1201.331507

                             ****ORCA TERMINATED NORMALLY****
TOTAL RUN TIME: 0 days 0 hours 0 minutes 57 seconds 996 msec
