                         Program Version 6.1.0  -  RELEASE   -
|  1> # avogadro generated ORCA file
|  2> # C6H11Cl | Geometry Optimization | revPBE/def2-TZVP
|  3> #
|  4> ! Opt revPBE def2-TZVP
|  5>
|  6> %maxcore 16384
|  7>
|  8> %pal
|  9>    nprocs 1
| 10> end
| 11>
| 12> * xyz 0 1
| 13>    C     -5.064520    2.558878    0.077069
| 14>    C     -5.098769    1.049286    0.338269
| 15>    H     -1.896050    0.566098   -0.812920
| 16>    H     -2.605575    2.473334    1.358662
| 17>    C     -3.700342    3.072538   -0.386695
| 18>    C     -3.999523    0.319826   -0.427022
| 19>    H     -5.813513    2.820929   -0.679991
| 20>    H     -5.364302    3.080194    0.994637
| 21>    H     -1.593452    2.718874   -0.055627
| 22>    H     -4.977082    0.872000    1.415245
| 23>    H     -6.088991    0.660727    0.070508
| 24>    C     -2.607499    0.809244   -0.013302
| 25>    H     -3.621627    2.966794   -1.476242
| 26>    Cl    -4.128374   -1.443631   -0.175904
| 27>    C     -2.557102    2.313741    0.273751
| 28>    H     -2.250605    0.281430    0.880551
| 29>    H     -3.618893    4.144014   -0.171188
| 30>    H     -4.138757    0.482087   -1.502218
| 31> *
| 32>
| 33>
| 34>
| 35>                          ****END OF INPUT****
 Total Charge           Charge          ....    0
 Multiplicity           Mult            ....    1
 Number of Electrons    NEL             ....   64
FINAL SINGLE POINT ENERGY      -695.400496801999
FINAL SINGLE POINT ENERGY      -695.402742865618
FINAL SINGLE POINT ENERGY      -695.403153043461
FINAL SINGLE POINT ENERGY      -695.403255303993
FINAL SINGLE POINT ENERGY      -695.403291928560
FINAL SINGLE POINT ENERGY      -695.403313253511
FINAL SINGLE POINT ENERGY      -695.403329174964
FINAL SINGLE POINT ENERGY      -695.403340119206
FINAL SINGLE POINT ENERGY      -695.403344460478
                    ***********************HURRAY********************

CARTESIAN COORDINATES (ANGSTROEM)
---------------------------------
  C     -5.084505    2.574468    0.028160
  C     -5.082009    1.062436    0.397097
  H     -1.921042    0.604114   -0.907910
  H     -2.685523    2.423603    1.411465
  C     -3.682867    3.095102   -0.388460
  C     -4.014101    0.330041   -0.416566
  H     -5.800718    2.756214   -0.788951
  H     -5.454388    3.144562    0.895169
  H     -1.578152    2.736360    0.077435
  H     -4.865778    0.924360    1.468729
  H     -6.072061    0.621373    0.214755
  C     -2.590304    0.804142   -0.056958
  H     -3.553761    2.997911   -1.480151
  Cl    -4.149874   -1.482964   -0.194911
  C     -2.564729    2.312396    0.320765
  H     -2.215997    0.204375    0.785699
  H     -3.600378    4.170826   -0.167980
  H     -4.208789    0.467044   -1.489806

 Multiplicity           Mult            ....    1
 Number of Electrons    NEL             ....   64
 Basis Dimension        Dim             ....  289

ORBITAL ENERGIES
----------------

  NO   OCC          E(Eh)            E(eV)
   0   2.0000    -100.651808     -2738.8749
   1   2.0000      -9.953559      -270.8501
   2   2.0000      -9.900234      -269.3991
   3   2.0000      -9.900172      -269.3974
   4   2.0000      -9.900092      -269.3952
   5   2.0000      -9.899095      -269.3681
   6   2.0000      -9.897931      -269.3364
   7   2.0000      -9.152876      -249.0624
   8   2.0000      -6.970553      -189.6784
   9   2.0000      -6.960432      -189.4030
  10   2.0000      -6.960380      -189.4016
  11   2.0000      -0.785537       -21.3756
  12   2.0000      -0.733749       -19.9663
  13   2.0000      -0.677178       -18.4270
  14   2.0000      -0.654184       -17.8013
  15   2.0000      -0.561948       -15.2914
  16   2.0000      -0.551654       -15.0113
  17   2.0000      -0.480915       -13.0863
  18   2.0000      -0.444247       -12.0886
  19   2.0000      -0.430275       -11.7084
  20   2.0000      -0.400029       -10.8853
  21   2.0000      -0.370499       -10.0818
  22   2.0000      -0.350378        -9.5343
  23   2.0000      -0.344953        -9.3867
  24   2.0000      -0.337178        -9.1751
  25   2.0000      -0.333332        -9.0704
  26   2.0000      -0.319194        -8.6857
  27   2.0000      -0.281640        -7.6638
  28   2.0000      -0.279290        -7.5999
  29   2.0000      -0.274686        -7.4746
  30   2.0000      -0.244632        -6.6568
  31   2.0000      -0.243937        -6.6379
  32   0.0000      -0.016038        -0.4364
  33   0.0000       0.016862         0.4588
  34   0.0000       0.030339         0.8256
  35   0.0000       0.041400         1.1265
  36   0.0000       0.054269         1.4767

MULLIKEN ATOMIC CHARGES
-----------------------
   0 C :   -0.198979
   1 C :   -0.133842
   2 H :    0.085756
   3 H :    0.066623
   4 C :   -0.132630
   5 C :    0.087094
   6 H :    0.084487
   7 H :    0.081293
   8 H :    0.087009
   9 H :    0.069789
  10 H :    0.097133
  11 C :   -0.213842
  12 H :    0.068309
  13 Cl:   -0.195243
  14 C :   -0.110116
  15 H :    0.090572
  16 H :    0.086504
  17 H :    0.080082
Sum of atomic charges:   -0.0000000

LOEWDIN ATOMIC CHARGES
----------------------
   0 C :   -0.251242
   1 C :   -0.264238
   2 H :    0.135477
   3 H :    0.135289
   4 C :   -0.262919
   5 C :   -0.448403
   6 H :    0.133164
   7 H :    0.134562
   8 H :    0.133819
   9 H :    0.138004
  10 H :    0.136192
  11 C :   -0.262435
  12 H :    0.133477
  13 Cl:    0.253680
  14 C :   -0.254338
  15 H :    0.137557
  16 H :    0.132956
  17 H :    0.139397

  Mayer bond orders larger than 0.100000
B(  0-C ,  1-C ) :   1.0222 B(  0-C ,  4-C ) :   1.0522 B(  0-C ,  6-H ) :   0.9527
B(  0-C ,  7-H ) :   0.9476 B(  1-C ,  5-C ) :   1.0649 B(  1-C ,  9-H ) :   0.9299
B(  1-C , 10-H ) :   0.9429 B(  2-H , 11-C ) :   0.9487 B(  3-H , 14-C ) :   0.9377
B(  4-C , 12-H ) :   0.9383 B(  4-C , 14-C ) :   1.0723 B(  4-C , 16-H ) :   0.9412
B(  5-C , 11-C ) :   1.0438 B(  5-C , 13-Cl) :   0.9978 B(  5-C , 17-H ) :   0.9480
B(  8-H , 14-C ) :   0.9395 B( 11-C , 14-C ) :   1.0271 B( 11-C , 15-H ) :   0.9424

FINAL SINGLE POINT ENERGY      -695.403345351662

DIPOLE MOMENT
-------------

Method             : SCF
Type of density    : Electron Density
Multiplicity       :   1
Irrep              :   0
Energy             :  -695.4033453516615282 Eh
Basis              : AO
                                X                 Y                 Z
Electronic contribution:     -1.392092883     -13.910940010      -0.935310725
Nuclear contribution   :      1.472211846      14.859359962       0.905994452
                        -----------------------------------------
Total Dipole Moment    :      0.080118962       0.948419952      -0.029316273
                        -----------------------------------------
Magnitude (a.u.)       :      0.952249388
Magnitude (Debye)      :      2.420425590

Rotational constants in cm-1:             0.139104             0.045473             0.037101
Rotational constants in MHz :          4170.223317          1363.248609          1112.246558

                             ****ORCA TERMINATED NORMALLY****
TOTAL RUN TIME: 0 days 0 hours 2 minutes 0 seconds 83 msec
